Using Slurm to start processes with PMI2
STARTING ridft ON 8 PROCESSORS!
RUNNING PROGRAM /modfac/apps/TURBOMOLE/7.0_intel_GA/bin/em64t-unknown-linux-gnu_mpi/ridft_mpi.
PLEASE WAIT UNTIL ridft HAS FINISHED.
Look for the output in slave1.output.
  this is node-proc. number 1 running on node c-5-27.local
  the total number of node-proc. spawned is            8
  parallel platform: MPP, or cluster with fast interconnect

 ridft (c-5-27.local) : TURBOMOLE V7.0.2( ) 15 Jan 2016 at 17:47:42
 Copyright (C) 2016 TURBOMOLE GmbH, Karlsruhe


    2016-01-31 07:01:15.875 



                                  r i d f t

                        DFT program with RI approximation 
                                for coulomb part 




                                                 
                                 References:     
                                                 
          TURBOMOLE:                             
              R. Ahlrichs, M. Baer, M. Haeser, H. Horn, and
              C. Koelmel
              Electronic structure calculations on workstation
              computers: the program system TURBOMOLE
              Chem. Phys. Lett. 162: 165 (1989)
          Density Functional:                              
              O. Treutler and R. Ahlrichs                      
              Efficient Molecular Numerical Integration Schemes
              J. Chem. Phys. 102: 346 (1995)                   
          Parallel Version:                                
              Performance of parallel TURBOMOLE for Density    
              Functional Calculations                          
              M. v. Arnim and R. Ahlrichs                      
              J. Comp. Chem. 19: 1746 (1998)                   
          RI-J Method:                                     
              Auxiliary Basis Sets to approximate Coulomb      
              Potentials                                       
              Chem. Phys. Lett. 240: 283 (1995)                
              K. Eichkorn, O. Treutler, H. Oehm, M. Haeser     
              and R. Ahlrichs                                  
              Chem. Phys. Lett. 242: 652 (1995)                
                                                           
              Auxiliary Basis Sets for Main Row Atoms and their
              Use to approximate Coulomb Potentials            
              K. Eichkorn, F. Weigend, O. Treutler and         
              R. Ahlrichs                                      
              Theo. Chem. Acc. 97: 119 (1997)                   
                                                           
              Accurate Coulomb-fitting basis sets for H to Rn 
              F. Weigend                                        
              Phys. Chem. Chem. Phys. 8: 1057 (2006)            
                                                           
          Multipole accelerated RI-J (MARI-J):             
              Fast evaluation of the Coulomb potential for     
              electron densities using multipole accelerated   
              resolution of identity approximation             
              M. Sierka, A. Hogekamp and R. Ahlrichs           
              J. Chem. Phys. 118: 9136 (2003)                  
          RI-JK Method:                                     
              A fully direct RI-HF algorithm: Implementation,
              optimised auxiliary basis sets, demonstration of
              accuracy and efficiency                         
              F. Weigend                                      
              Phys. Chem. Chem. Phys. 4: 4285 (2002)           
          Two-component HF and DFT with spin-orbit coupling:  
              Self-consistent treatment of spin-orbit         
              interactions with efficient Hartree-Fock and    
              density functional methods                      
              M. K. Armbruster, F. Weigend, C. van Wüllen and 
              W. Klopper                                      
              Phys. Chem. Chem. Phys. 10: 1748 (2008)         
          Relativistic all-electron 2c calculations           
              An efficient implementation of two-component    
              relativistic exact-decoupling methods for large 
              molecules                                       
              D. Peng, N. Middendorf, F. Weigend, M. Reiher   
              J. Chem. Phys. 138, 184105 (2013)               
                                         


 


              +--------------------------------------------------+
              |      general information about current run       |
              +--------------------------------------------------+

 

 SCF run will be profiled !


 DENSITY CONVERGENCE CHECK SWITCHED ON !
 SCF CONVERGENCE IF RMS(delta[D]) <     0.1000000000E-06

 PBE functional
 exchange:    LDA + PBE
 correlation: LDA (PW) + PBE
 A DFT calculation using the RI-J approximation will be carried out.
 Allocatable memory for RI due to $ricore (MB):        8000


              +--------------------------------------------------+
              | Atomic coordinate, charge and isotop information |
              +--------------------------------------------------+

                    atomic coordinates            atom    charge  isotop
         -1.46652197   -0.15990863    9.49727222    c      0.000     0
          1.49517021   -0.17859802    9.46303038    c      0.000     0
          2.10343526   -2.56929055    8.29797642    n      0.000     0
         -0.02575697   -3.98499778    7.67166449    c      0.000     0
         -2.12694345   -2.49833133    8.25305763    n      0.000     0
         -2.08986703    2.13688341    8.13632925    n      0.000     0
          0.01808468    3.41424379    7.24466197    c      0.000     0
          2.12197347    2.06505492    8.00474762    n      0.000     0
         -0.00054802    5.39703894    6.06078635    o      0.000     0
         -0.05890276   -6.12080405    6.85004936    o      0.000     0
          4.65269471    3.08945656    7.77174439    c      0.000     0
          4.62359293   -3.63190245    8.10119924    c      0.000     0
         -9.08417808   -0.17132257    3.51222609    c      0.000     0
         -7.57789628   -0.15718742    6.06551066    c      0.000     0
         -6.13004481   -2.46361706    5.96499613    n      0.000     0
         -6.61475956   -3.88882961    3.80252582    c      0.000     0
         -8.26025749   -2.47106258    2.30535250    n      0.000     0
         -8.29030413    2.17314726    2.30712884    n      0.000     0
         -6.57052107    3.51260404    3.73294611    c      0.000     0
         -6.13244476    2.18119749    5.92087102    n      0.000     0
         -5.64803236    5.57045911    3.17409740    o      0.000     0
         -5.82026200   -5.98396898    3.34266097    o      0.000     0
         -4.58936999    3.20584480    7.94284019    c      0.000     0
         -4.66269136   -3.49843109    8.03991542    c      0.000     0
          9.11566092   -0.49316183   -3.51591106    c      0.000     0
          7.58197809   -0.37548858   -6.04922122    c      0.000     0
          6.12252370   -2.67912143   -6.02093202    n      0.000     0
          6.48795894   -4.10335132   -3.83580390    c      0.000     0
          8.12931836   -2.73551086   -2.29860618    n      0.000     0
          8.53536382    1.89902359   -2.31175867    n      0.000     0
          6.81815078    3.33984528   -3.66536950    c      0.000     0
          6.15755922    1.95892790   -5.79673491    n      0.000     0
          6.06352645    5.44728676   -3.12781800    o      0.000     0
          5.60048685   -6.16772595   -3.39169936    o      0.000     0
          4.65269471    3.08945656   -7.77174439    c      0.000     0
          4.62359293   -3.63190245   -8.10119924    c      0.000     0
          7.58197809   -0.37548858    6.04922122    c      0.000     0
          9.11566092   -0.49316183    3.51591106    c      0.000     0
          8.12931836   -2.73551086    2.29860618    n      0.000     0
          6.48795894   -4.10335132    3.83580390    c      0.000     0
          6.12252370   -2.67912143    6.02093202    n      0.000     0
          6.15755922    1.95892790    5.79673491    n      0.000     0
          6.81815078    3.33984528    3.66536950    c      0.000     0
          8.53536382    1.89902359    2.31175867    n      0.000     0
          6.06352645    5.44728676    3.12781800    o      0.000     0
          5.60048685   -6.16772595    3.39169936    o      0.000     0
          9.66840581    2.82997827    0.00000000    c      0.000     0
          9.13162911   -3.83119297    0.00000000    c      0.000     0
         -7.57789628   -0.15718742   -6.06551066    c      0.000     0
         -9.08417808   -0.17132257   -3.51222609    c      0.000     0
         -8.26025749   -2.47106258   -2.30535250    n      0.000     0
         -6.61475956   -3.88882961   -3.80252582    c      0.000     0
         -6.13004481   -2.46361706   -5.96499613    n      0.000     0
         -6.13244476    2.18119749   -5.92087102    n      0.000     0
         -6.57052107    3.51260404   -3.73294611    c      0.000     0
         -8.29030413    2.17314726   -2.30712884    n      0.000     0
         -5.64803236    5.57045911   -3.17409740    o      0.000     0
         -5.82026200   -5.98396898   -3.34266097    o      0.000     0
         -9.35011924    3.19163405    0.00000000    c      0.000     0
         -9.31376091   -3.50842774    0.00000000    c      0.000     0
          1.49517021   -0.17859802   -9.46303038    c      0.000     0
         -1.46652197   -0.15990863   -9.49727222    c      0.000     0
         -2.12694345   -2.49833133   -8.25305763    n      0.000     0
         -0.02575697   -3.98499778   -7.67166449    c      0.000     0
          2.10343526   -2.56929055   -8.29797642    n      0.000     0
          2.12197347    2.06505492   -8.00474762    n      0.000     0
          0.01808468    3.41424379   -7.24466197    c      0.000     0
         -2.08986703    2.13688341   -8.13632925    n      0.000     0
         -0.00054802    5.39703894   -6.06078635    o      0.000     0
         -0.05890276   -6.12080405   -6.85004936    o      0.000     0
         -4.58936999    3.20584480   -7.94284019    c      0.000     0
         -4.66269136   -3.49843109   -8.03991542    c      0.000     0
         -2.27540034   -0.09046119   11.40835225    h      0.000     0
          2.34751229   -0.04926516   11.35175496    h      0.000     0
          5.62187855    2.86968141    9.59370494    h      0.000     0
          4.45801513    5.08933483    7.29296337    h      0.000     0
          5.64202303   -3.29632488    9.87648356    h      0.000     0
          4.37509394   -5.65731092    7.77569391    h      0.000     0
        -11.14452759   -0.16293219    3.76225576    h      0.000     0
         -8.79361379   -0.12209521    7.74712125    h      0.000     0
         -4.36324536    5.21976373    7.54975826    h      0.000     0
         -5.58217541    2.92535275    9.74042328    h      0.000     0
         -4.46555513   -5.52281911    7.67215582    h      0.000     0
         -5.68650719   -3.17496667    9.81550210    h      0.000     0
         11.16584370   -0.66185768   -3.79816055    h      0.000     0
          8.78410847   -0.29829327   -7.74084736    h      0.000     0
          5.62187855    2.86968141   -9.59370494    h      0.000     0
          4.45801513    5.08933483   -7.29296337    h      0.000     0
          5.64202303   -3.29632488   -9.87648356    h      0.000     0
          4.37509394   -5.65731092   -7.77569391    h      0.000     0
          8.78410847   -0.29829327    7.74084736    h      0.000     0
         11.16584370   -0.66185768    3.79816055    h      0.000     0
          9.41087394    4.87880044    0.00000000    h      0.000     0
         11.68342079    2.34900517    0.00000000    h      0.000     0
          8.57412210   -5.82166040    0.00000000    h      0.000     0
         11.19993436   -3.65263274    0.00000000    h      0.000     0
         -8.79361379   -0.12209521   -7.74712125    h      0.000     0
        -11.14452759   -0.16293219   -3.76225576    h      0.000     0
        -11.39499189    2.85599980    0.00000000    h      0.000     0
         -8.95318227    5.21726929    0.00000000    h      0.000     0
        -11.36931051   -3.22642391    0.00000000    h      0.000     0
         -8.85580468   -5.52406633    0.00000000    h      0.000     0
          2.34751229   -0.04926516  -11.35175496    h      0.000     0
         -2.27540034   -0.09046119  -11.40835225    h      0.000     0
         -4.36324536    5.21976373   -7.54975826    h      0.000     0
         -5.58217541    2.92535275   -9.74042328    h      0.000     0
         -4.46555513   -5.52281911   -7.67215582    h      0.000     0
         -5.68650719   -3.17496667   -9.81550210    h      0.000     0
         -0.66782922    1.57591821    0.00000000    c      6.000     0
          0.56754145    4.17423495    0.00000000    c      6.000     0
          1.31660999   -0.54063175    0.00000000    c      6.000     0
          0.12929506   -3.17817920    0.00000000    c      6.000     0
         -1.40340511    6.24357955    0.00000000    n      7.000     0
         -2.58212179    6.12095523   -1.56679083    h      1.000     0
         -2.58212179    6.12095523    1.56679083    h      1.000     0
         -1.88439711    1.36939004   -1.66855259    h      1.000     0
         -1.88439711    1.36939004    1.66855259    h      1.000     0
          2.53748646   -0.31331659   -1.66122045    h      1.000     0
          2.53748646   -0.31331659    1.66122045    h      1.000     0
         -0.54907883    7.97687416    0.00000000    h      1.000     0
          1.72360031    4.48401776   -1.67596031    h      1.000     0
          1.72360031    4.48401776    1.67596031    h      1.000     0
          1.57434974   -4.65161757    0.00000000    h      1.000     0
         -1.05558212   -3.46651362    1.67068798    h      1.000     0
         -1.05558212   -3.46651362   -1.67068798    h      1.000     0
 
       center of nuclear mass  :    0.00955333   -0.12564713   -0.00000000
       center of nuclear charge:   -0.07550906    1.75831238    0.00000000

              +--------------------------------------------------+
              |               basis set information              |
              +--------------------------------------------------+

              we will work with the 1s 3p 5d 7f 9g ... basis set
              ...i.e. with spherical basis functions...

   type   atoms  prim   cont   basis
   ---------------------------------------------------------------------------
    c       40     77     55   cc-pVQZ   [5s4p3d2f1g|21s6p3d2f1g]
    n       25     77     55   cc-pVQZ   [5s4p3d2f1g|21s6p3d2f1g]
    o       12     77     55   cc-pVQZ   [5s4p3d2f1g|21s6p3d2f1g]
    h       48     32     30   cc-pVQZ   [4s3p2d1f|6s3p2d1f]
   ---------------------------------------------------------------------------
   total:  125   7465   5675
   ---------------------------------------------------------------------------

   total number of primitive shells          :  111
   total number of contracted shells         : 1635
   total number of cartesian basis functions : 7070
   total number of SCF-basis functions       : 5675


 integral neglect threshold       :  0.47E-14
 integral storage threshold THIZE :  0.10E-04
 integral storage threshold THIME :         5

 RI-J AUXILIARY BASIS SET information:

              we will work with the 1s 3p 5d 7f 9g ... basis set
              ...i.e. with spherical basis functions...

   type   atoms  prim   cont   basis
   ---------------------------------------------------------------------------
    c       40     70     49   cc-pVQZ   [6s4p3d1f1g|12s5p4d2f1g]
    n       25     70     49   cc-pVQZ   [6s4p3d1f1g|12s5p4d2f1g]
    o       12     70     49   cc-pVQZ   [6s4p3d1f1g|12s5p4d2f1g]
    h       48     16     11   cc-pVQZ   [3s1p1d|5s2p1d]
   ---------------------------------------------------------------------------
   total:  125   6158   4301
   ---------------------------------------------------------------------------

   total number of primitive shells          :   80
   total number of contracted shells         : 1395
   total number of cartesian basis functions : 5273
   total number of SCF-basis functions       : 4301


 symmetry group of the molecule :   c1 

 the group has the following generators :
   c1(z)

    1 symmetry operations found

 there are 1 real representations :   a   

 maximum number of shells which are related by symmetry :  1


    mo occupation :
   irrep   mo's   occupied
    a     5675       21
 
 number of basis functions   :         5675
 number of occupied orbitals :           21
 
  
           ------------------
           density functional
           ------------------
 Dummy atoms with grid-point found.
 DFT quadrature threshold dgrenze tightened by factor 1/10.

 PBE functional
 exchange:    LDA + PBE
 correlation: LDA (PW) + PBE
 Dummy atoms with grid-point found.
 DFT quadrature threshold dgrenze tightened by factor 1/10.

 Dummy atoms with grid-point found.
 DFT quadrature threshold dgrenze tightened by factor 1/10.

 grinp -> nfun, dfgga, dfhybrid 
           6 T F
 iterations will be done with small grid
  
 spherical integration : Lebedev's spherical grid
 spherical gridsize    :           5
    i.e. gridpoints    :         590
 value for diffuse not defined
 radial integration    : Chebyshev 2nd kind (scaling 3)
 radial gridsize       :           8
 integration cells     :         125
 partition function    : becke
 partition sharpness   :           3
  
 found dummy atom(s) with basis: included in dft

 <rddim> : input of entry tasksize
           from data group '$pardft' failed !

               Default values taken

 <rddim> : input of entry memdiv
           from data group '$pardft' failed !

               Default values taken
  RIDFT: memory allocation for DFT gridpoints
  MEMORY is divided by 1 as DEFAULT
 Each node can hold at most  the            1 -th part
 of the gridpoints    

 biggest AO integral is expected to be     4.785886462
  
           ------------------------
               RI-J - INFORMATION
           ------------------------
 
 
 **************************************************
 *      MEMORY ALLOCATION FOR PARALLEL RI-DFT     *
 **************************************************
 
 
MEMORY FOR (MU NU/ ALPHA), SEQUENTIAL RUN               7858 MByte
 
            DIFFERENCE IN MEMORY NEED:       DIAG./SLAVE  
 
      TOTAL DIFFERENCE :                   1450 MByte
 
      difference in xcore:                  143 MByte
      difference in fatmat:                 434 MByte
      getcor calls skipped by slaves:       873 MByte
 
 
           Integral memory available for diagonal.      7858 MByte
 
           Integral memory available for slave             0 MByte
 
         MEMORY FOR (MU NU/ ALPHA) ON DIAGONALIZER      7858 MByte
 
         MEMORY FOR (MU NU/ ALPHA) ON ONE SLAVE            0 MByte
 
         TOTAL MEMORY FOR (MU NU/ ALPHA),ALL NODES      7858 MByte
 
 Contributions to RI integral batches: 
  neglected integral batches:      870488
  direct contribution:             401860
  memory contribution:       65082
 Memory core needed for (P|Q) and Cholesky    142 MByte
 Memory core minimum needed except of (P|Q)     3 MByte
 Total minimum memory core needed (sum)       144 MByte
     number of direct tasks:         160
  
 ****************************************
 Memory allocated for RI-J  8002 MByte
 ****************************************
                                            

          ------------------------
          nuclear repulsion energy  :   194.090624652    
          ------------------------

 
          -----------------
          -S integrals
          -----------------

 1e-integrals will be neglected if expon. factor < 0.472696E-15
 
          -----------------
          -T+V integrals
          -----------------

 1e-integrals will be neglected if expon. factor < 0.472696E-15
 Difference densities >>NOT<< switched on in parallel ridft!

 automatic virtual orbital shift switched on 
      shift if e(lumo)-e(homo) < 0.10000000    


 DIIS switched on: error vector is FDS-SDF
 Max. Iterations for DIIS is     :   4
 DIIS matrix (see manual) 
    Scaling factor of diagonals  :  1.200
    threshold for scaling factor :  0.000

 scf convergence criterion : increment of total energy < .1000000D-08
                  and increment of one-electron energy < .1000000D-05


 <geterg> : there is no data group $energy 

  MOs are in ASCII format !


 reading orbital data $scfmo  from file mos . 

 orbital characterization : expanded
 
 mo provided and orthogonalized by Cholesky decomposition

 DSCF restart information will be dumped onto file mos


 Starting SCF iterations


 ITERATION  ENERGY          1e-ENERGY        2e-ENERGY     RMS[dD(SAO)]   TOL
   1  -213.16871163950    -653.99676238     246.73742609    0.000D+00 0.471D-14
                            Exc = -31.4105115123     Coul =  278.147937598    
                              N = 42.000365828    
                            current damping = 0.700
 
          max. resid. norm for Fia-block=  3.100D-01 for orbital      1a         
          max. resid. fock norm         =  2.563D+01 for orbital   5305a         

 ITERATION  ENERGY          1e-ENERGY        2e-ENERGY     RMS[dD(SAO)]   TOL
   2  -213.78773641270    -660.26311858     252.38475752    0.357D-03 0.471D-14
                            Exc = -32.1202942423     Coul =  284.505051761    
                              N = 42.000273621    
                            current damping = 0.650
 
          Norm of current diis error:  2.6890    
          max. resid. norm for Fia-block=  1.278D-01 for orbital      1a         
          max. resid. fock norm         =  1.368D-01 for orbital      1a         

 ITERATION  ENERGY          1e-ENERGY        2e-ENERGY     RMS[dD(SAO)]   TOL
   3  -213.91438805655    -661.41306912     253.40805641    0.142D-03 0.471D-14
                            Exc = -32.3163243052     Coul =  285.724380717    
                              N = 42.000207231    
                            current damping = 0.550
 
          Norm of current diis error:  1.2828    
          max. resid. norm for Fia-block=  5.293D-02 for orbital      1a         
          max. resid. fock norm         =  5.506D-02 for orbital      1a         

 ITERATION  ENERGY          1e-ENERGY        2e-ENERGY     RMS[dD(SAO)]   TOL
   4  -213.95070256220    -662.77270763     254.73138042    0.698D-04 0.471D-14
                            Exc = -32.4895194950     Coul =  287.220899913    
                              N = 42.000150967    
                            current damping = 0.450
 
          Norm of current diis error: 0.46337    
          max. resid. norm for Fia-block=  1.894D-02 for orbital      1a         
          max. resid. fock norm         =  2.507D-02 for orbital   4759a         

 ITERATION  ENERGY          1e-ENERGY        2e-ENERGY     RMS[dD(SAO)]   TOL
   5  -213.95613199113    -662.89662993     254.84987328    0.316D-04 0.471D-14
                            Exc = -32.5242737312     Coul =  287.374147015    
                              N = 42.000127483    
                            current damping = 0.300
 
          Norm of current diis error: 0.18922    
          max. resid. norm for Fia-block=  7.463D-03 for orbital      6a         
          max. resid. fock norm         =  8.225D-03 for orbital     22a         
          mo-orthogonalization: Cholesky decomposition

 ITERATION  ENERGY          1e-ENERGY        2e-ENERGY     RMS[dD(SAO)]   TOL
   6  -213.95692456299    -663.19389842     255.14634920    0.130D-04 0.471D-14
                            Exc = -32.5610617707     Coul =  287.707410974    
                              N = 42.000117300    
                            current damping = 0.150
 
          Norm of current diis error: 0.82857E-01
          max. resid. norm for Fia-block=  2.939D-03 for orbital     10a         
          max. resid. fock norm         =  5.038D-03 for orbital   4906a         

 ITERATION  ENERGY          1e-ENERGY        2e-ENERGY     RMS[dD(SAO)]   TOL
   7  -213.95704150125    -663.16577781     255.11811165    0.391D-05 0.471D-14
                            Exc = -32.5590238145     Coul =  287.677135467    
                              N = 42.000115110    
                            current damping = 0.200
 
          Norm of current diis error: 0.27168E-01
          max. resid. norm for Fia-block=  8.123D-04 for orbital     13a         
          max. resid. fock norm         =  1.032D-03 for orbital     13a         

 ITERATION  ENERGY          1e-ENERGY        2e-ENERGY     RMS[dD(SAO)]   TOL
   8  -213.95705205728    -663.14735196     255.09967525    0.107D-05 0.471D-14
                            Exc = -32.5586835774     Coul =  287.658358826    
                              N = 42.000115097    
                            current damping = 0.050
 
          Norm of current diis error: 0.10582E-01
          max. resid. norm for Fia-block=  2.480D-04 for orbital     19a         
          max. resid. fock norm         =  3.346D-04 for orbital     17a         

 ITERATION  ENERGY          1e-ENERGY        2e-ENERGY     RMS[dD(SAO)]   TOL
   9  -213.95705380259    -663.17266015     255.12498169    0.471D-06 0.471D-14
                            Exc = -32.5605045874     Coul =  287.685486280    
                              N = 42.000114954    
                            current damping = 0.100
 
          Norm of current diis error: 0.41450E-02
          max. resid. norm for Fia-block=  9.955D-05 for orbital     19a         
          max. resid. fock norm         =  1.761D-04 for orbital   5601a         

 ITERATION  ENERGY          1e-ENERGY        2e-ENERGY     RMS[dD(SAO)]   TOL
  10  -213.95705408922    -663.16631129     255.11863255    0.138D-06 0.471D-14
                            Exc = -32.5600638871     Coul =  287.678696434    
                              N = 42.000114916    
                            current damping = 0.150
 
          Norm of current diis error: 0.11344E-02
          max. resid. norm for Fia-block=  3.913D-05 for orbital     15a         
          max. resid. fock norm         =  9.439D-05 for orbital   5599a         
          mo-orthogonalization: Cholesky decomposition

 DENSITY CONVERGED !


 ITERATION  ENERGY          1e-ENERGY        2e-ENERGY     RMS[dD(SAO)]   TOL
  11  -213.95705410679    -663.16532979     255.11765104    0.456D-07 0.471D-14
                            Exc = -32.5599733777     Coul =  287.677624413    
                              N = 42.000114976    
                            current damping = 0.050
 
          Norm of current diis error: 0.58364E-03
          max. resid. norm for Fia-block=  1.272D-05 for orbital     15a         
          max. resid. fock norm         =  2.856D-05 for orbital   5599a         

 DENSITY CONVERGED !


 ITERATION  ENERGY          1e-ENERGY        2e-ENERGY     RMS[dD(SAO)]   TOL
  12  -213.95705411283    -663.16606976     255.11839100    0.178D-07 0.471D-14
                            Exc = -32.5600383975     Coul =  287.678429396    
                              N = 42.000114953    
                            current damping = 0.100
 
          Norm of current diis error: 0.11950E-03
          max. resid. norm for Fia-block=  5.620D-06 for orbital     10a         
          max. resid. fock norm         =  6.986D-06 for orbital   4906a         

 DENSITY CONVERGED !


 ITERATION  ENERGY          1e-ENERGY        2e-ENERGY     RMS[dD(SAO)]   TOL
  13  -213.95705411288    -663.16594513     255.11826636    0.471D-08 0.471D-14
                            Exc = -32.5600239515     Coul =  287.678290312    
                              N = 42.000114954    
                            current damping = 0.150
 
          Norm of current diis error: 0.10653E-03
          max. resid. norm for Fia-block=  2.630D-06 for orbital     13a         
          max. resid. fock norm         =  3.489D-06 for orbital     13a         

 ENERGY & DENSITY CONVERGED !


 ITERATION  ENERGY          1e-ENERGY        2e-ENERGY     RMS[dD(SAO)]   TOL
  14  -213.95707119299    -663.16593319     255.11823735    0.253D-08 0.471D-14
                            Exc = -32.5600423870     Coul =  287.678279732    
                              N = 42.000026897    
                            current damping = 0.050
 
          Norm of current diis error: 0.13657E-04
          max. resid. norm for Fia-block=  4.570D-07 for orbital     19a         
          max. resid. fock norm         =  6.407D-07 for orbital   5600a         

 End of SCF iterations

   convergence criteria satisfied after   14 iterations


                  ------------------------------------------ 
                 |  total energy      =   -213.95707119299  |
                  ------------------------------------------ 
                 :  kinetic energy    =    212.84314449366  :
                 :  potential energy  =   -426.80021568664  :
                 :  virial theorem    =      1.99479369065  :
                 :  wavefunction norm =      1.00000000000  :
                  .......................................... 


 <geterg> : there is no data group $energy 


 <skperg> : $end is missing 


 orbitals $scfmo  will be written to file mos

    irrep                 17a         18a         19a         20a         21a   
 eigenvalues H         -0.50052    -0.47719    -0.45077    -0.43440    -0.42563
            eV         -13.6199    -12.9851    -12.2661    -11.8207    -11.5820
 occupation              2.0000      2.0000      2.0000      2.0000      2.0000 

    irrep                 22a         23a         24a         25a         26a   
 eigenvalues H         -0.21799    -0.16213    -0.15791    -0.15014    -0.12160
            eV          -5.9320     -4.4119     -4.2971     -4.0855     -3.3089
 
 
 ! grave: sending quit signal to master process
 
 
 
 
 ==============================================================================
                           electrostatic moments
 ==============================================================================

 reference point for electrostatic moments:    0.00000   0.00000   0.00000

 
              nuc           elec       ->  total
 ------------------------------------------------------------------------------
                          charge      
 ------------------------------------------------------------------------------
          43.000000     -42.000000       1.000000
 
 ------------------------------------------------------------------------------
                       dipole moment  
 ------------------------------------------------------------------------------
   x      -3.246890       2.286424      -0.960465
   y      75.607432     -70.561859       5.045573
   z       0.000000      -0.000000      -0.000000
 
   | dipole moment | =     5.1362 a.u. =    13.0549 debye 
 
 ------------------------------------------------------------------------------
                     quadrupole moment
 ------------------------------------------------------------------------------
  xx      73.160945     -93.396389     -20.235445
  yy     683.074478    -671.222681      11.851797
  zz      27.197192     -49.079808     -21.882616
  xy     -87.461245      80.157421      -7.303824
  xz       0.000000      -0.000000      -0.000000
  yz       0.000000       0.000000       0.000000
 
     1/3  trace=     -10.088755
     anisotropy=      35.287320
 
 ==============================================================================
 

    ridft profiling
  --------------------------------------------------------------------
             module   cpu total (s)       %  wall total (s)       %

               RIDFT         12138.4  100.00         12154.6  100.00
         Ridft_b_scf           577.0    4.75           576.5    4.74
        b_scf_prelim             0.0    0.00             0.0    0.00
        b_scf_molinp             0.0    0.00             0.0    0.00
         b_scf_init0             0.0    0.00             0.0    0.00
        b_scf_auxbas             0.0    0.00             0.0    0.00
      b_scf_symmetry             0.0    0.00             0.0    0.00
         b_scf_cosmo             0.0    0.00             0.0    0.00
        b_scf_params            43.4    0.36            43.4    0.36
          b_scf_ri-j           118.8    0.98           118.7    0.98
    b_scf_ri-j_auxpq           118.5    0.98           118.4    0.97
     ri-j_auxpq_chol            11.8    0.10            11.8    0.10
         b_scf_1elec             6.3    0.05             6.3    0.05
       b_scf_moinput           408.5    3.37           408.2    3.36
     moinput_orthmos           408.3    3.36           408.0    3.36
    b_scf_dft-dstmax             0.0    0.00             0.0    0.00
           Ridft_scf         11558.5   95.22         11575.0   95.23
          Scf_b_loop             0.0    0.00             0.0    0.00
                noga             0.0    0.00             0.0    0.00
            Scf_loop         11536.9   95.04         11551.8   95.04
     scf_loop_mkdmat            22.9    0.19            22.9    0.19
       scf_loop_ri-j          2198.7   18.11          2197.1   18.08
      parlp1.bc.dens             3.4    0.03             3.4    0.03
        parlp1.gs.gp             0.2    0.00             0.2    0.00
        parlp2.bc.gq             0.0    0.00             0.0    0.00
        scf_loop_dft          6007.7   49.49          6003.6   49.39
      pardft.bc.dens             0.0    0.00             0.0    0.00
        dft_grid_con            88.9    0.73            88.9    0.73
           dft_xcrhf          5858.8   48.27          5854.8   48.17
          dft_getval           130.8    1.08           130.7    1.08
          funct2 dst             1.8    0.01             1.7    0.01
      funct2 f2loop1            22.6    0.19            22.6    0.19
      funct2 f2loop2            58.8    0.48            58.8    0.48
          funct2 s+c            46.2    0.38            46.2    0.38
        funct2 cmf_2            41.8    0.34            42.0    0.35
          dft_mkdens          2754.7   22.69          2752.9   22.65
         dft_gga-fun             1.0    0.01             1.1    0.01
          dft_mkfock          2971.1   24.48          2969.0   24.43
     pardft.red.fock           482.7    3.98           482.4    3.97
     scf_loop_energy             0.3    0.00             0.3    0.00
     scf_loop_mkfock             0.5    0.00             0.5    0.00
       scf_loop_diis          1911.3   15.75          1909.9   15.71
       scf_loop_diag           884.8    7.29           884.2    7.27
         diag_tritrn           322.5    2.66           322.3    2.65
          diag_rdiag           561.0    4.62           560.6    4.61
     scf_loop_modump           257.0    2.12           279.8    2.30
      scf_loop_ortho           243.6    2.01           243.4    2.00
          Scf_a_loop            21.6    0.18            23.2    0.19
         Ridft_a_scf             3.0    0.02             3.1    0.03
         a_scf_fanal             2.9    0.02             2.9    0.02
 


    ------------------------------------------------------------------------
         total  cpu-time :  3 hours 22 minutes and 44 seconds
         total wall-time :  3 hours 23 minutes and  1 seconds
    ------------------------------------------------------------------------


   ****  ridft : all done  ****


    2016-01-31 10:24:16.417 

