
OPTIMIZATION CYCLE 16
Thu Oct 15 10:46:50 PDT 2015
 operating system is UNIX !
 hostname is         c-9-373.local

 statpt (c-9-373.local) : TURBOMOLE V7.0( ) 6 Jul 2015 at 18:30:05
 Copyright (C) 2015 TURBOMOLE GmbH, Karlsruhe


    2015-10-15 10:46:50.330 



                           this is S T A T P T   


                     hessian and coordinate update for
                          stationary point search 

                     by barbara unterreiner, marek sierka,
                           and reinhart ahlrichs

                          quantum chemistry group
                          universitaet  karlsruhe
                                  germany


  Keyword $statpt not found - using default options
 
        ***************  Stationary point options ******************
        ************************************************************
           Maximum allowed trust radius:           3.000000E-01
           Minimum allowed trust radius:           1.000000E-03
           Initial trust radius:                   1.500000E-01
           GDIIS used if gradient norm <           1.000000E-02
           Number of previous steps for GDIIS:       5
           Hessian update method:                  BFGS
                        *** Convergence criteria ***                
           Threshold for energy change:            1.000000E-07
           Threshold for max displacement element: 1.000000E-03
           Threshold for max gradient element :    1.000000E-04
           Threshold for RMS of displacement:      5.000000E-04
           Threshold for RMS of gradient:          5.000000E-04
        ************************************************************
 
     Number of symmetry restricted degrees of freedom:   105
     Constituted by:     3 translational degrees of freedom
                         3 rotational degrees of freedom
                      99 internal degrees of freedom

  *************************************************************************
   ATOM                      CARTESIAN COORDINATES
    1 o       1.59295984364335     -1.47734762717578     -0.92597286593327
    2 c      -0.22471498936913      0.35763972002348     -0.00347280883302
    3 c       1.38939096314995      2.66044910768900      0.54729724822905
    4 c       3.83741862252596      2.10854656904725      0.29294962429141
    5 c       4.14120072785766     -0.61401700462531     -0.49691822139646
    6 c      -2.20189850939516      0.81172611891049     -2.14291913338984
    7 c       5.71214105498829     -1.01107761616381     -2.88295557860908
    8 c      -0.92437358419962      2.09770287922898     -4.41655701437128
    9 c      -4.36330907357674      2.51812919841130     -1.20317479910894
   10 c      -3.31713983375420     -1.71621348660890     -3.05809854543140
   11 c      -1.44780949596460     -0.62068264538940      2.46263095060362
   12 c       0.44431281682619     -1.69928830419988      4.37334322174580
   13 c      -0.86562962683171     -2.47264334036421      6.84088570726442
   14 h       0.60250765138394      4.46535638744216      1.13885236859054
   15 h       5.42905388145877      3.36838098727121      0.62374128124429
   16 h       4.97853235234870     -1.72908776350812      1.06208211208787
   17 h       4.99860903969459      0.16779629880971     -4.43216660444229
   18 h       7.69718394216815     -0.51163227894248     -2.52388073543209
   19 h       5.63146158589310     -3.00116640225813     -3.46365304783109
   20 h      -0.22185643790516      3.99259485114759     -3.93951726993493
   21 h       0.66968993078308      0.96447245071271     -5.10392448534291
   22 h      -2.29184990859996      2.29699378604608     -5.96903860585058
   23 h      -3.65288767832682      4.31294518309303     -0.43110626939980
   24 h      -5.62598758961704      2.97655251453339     -2.78901618479270
   25 h      -5.50603054584157      1.58915376503007      0.25891469372925
   26 h      -1.82033151080938     -2.97710928285787     -3.74109457615891
   27 h      -4.36909397715236     -2.70074371517251     -1.56510840809537
   28 h      -4.64174061939084     -1.36161648087895     -4.62062798661007
   29 h      -2.84597845169783     -2.09105830538578      2.01515333976559
   30 h      -2.48842150241979      0.95162958668107      3.34786544595047
   31 h       1.38695023691724     -3.34853028488899      3.53462162909373
   32 h       1.91947617876934     -0.29162226802171      4.78226406766956
   33 h      -2.33496593408169     -3.89895408787137      6.48725740693634
   34 h       0.48787417452112     -3.27843886528621      8.19351043961996
   35 h      -1.77474373399542     -0.83883964447801      7.74783360414184
  *************************************************************************
   ATOM                      CARTESIAN GRADIENTS  
    1 o       0.00000012209745     -0.00000029780150     -0.00000016664238
    2 c       0.00000003001093      0.00000025670599      0.00000010873840
    3 c       0.00000008754800     -0.00000011370938      0.00000006652156
    4 c       0.00000001248861     -0.00000008575752     -0.00000005617971
    5 c      -0.00000006841759      0.00000012549478     -0.00000000308183
    6 c       0.00000005352917     -0.00000012052282     -0.00000011049165
    7 c       0.00000007709782     -0.00000003619316      0.00000000335581
    8 c      -0.00000000071389     -0.00000005195905      0.00000002957972
    9 c      -0.00000000952332      0.00000012670827      0.00000019434158
   10 c       0.00000005187528      0.00000001601920     -0.00000012732617
   11 c      -0.00000027304922     -0.00000020768454      0.00000003039963
   12 c       0.00000014641822      0.00000002641708     -0.00000002246268
   13 c       0.00000000655559     -0.00000011848832      0.00000002737644
   14 h       0.00000013398640      0.00000003802845      0.00000015716038
   15 h      -0.00000001514689      0.00000002985488      0.00000009856471
   16 h       0.00000008369432      0.00000002789771     -0.00000004097601
   17 h      -0.00000003708228      0.00000007053014     -0.00000005318767
   18 h      -0.00000000668595      0.00000002306257      0.00000002199405
   19 h       0.00000003170050     -0.00000000263735     -0.00000004711812
   20 h       0.00000001713688      0.00000005837366      0.00000005272242
   21 h       0.00000001728662      0.00000005868152      0.00000004500982
   22 h       0.00000004562370      0.00000005810144      0.00000001216004
   23 h      -0.00000003770069     -0.00000014763373     -0.00000000819222
   24 h       0.00000000910575      0.00000002391743     -0.00000000076488
   25 h       0.00000004225864      0.00000002466709     -0.00000005446678
   26 h       0.00000000147639      0.00000003747761      0.00000000937721
   27 h       0.00000004692645     -0.00000001497650     -0.00000000661580
   28 h       0.00000001195556     -0.00000000444238     -0.00000003766515
   29 h       0.00000013766030     -0.00000001697966      0.00000005936154
   30 h      -0.00000000332998     -0.00000013895629     -0.00000001501591
   31 h       0.00000000727472     -0.00000002071672      0.00000005763586
   32 h       0.00000002053484     -0.00000003109594      0.00000003170900
   33 h      -0.00000002012497     -0.00000016827413     -0.00000010549697
   34 h       0.00000005449130     -0.00000008853764     -0.00000005543858
   35 h      -0.00000003074118     -0.00000002727212     -0.00000000253174
  *************************************************************************

  norm of actual CARTESIAN gradient:  8.77617E-07
  norm of actual INTERNAL  gradient:  1.50136E-06

  ENERGY =    -546.2020252395 a.u.; # of cycle =   16

  Approximate Hessian read from $hessapprox data section

  Hessian updated according to BFGS formula
  Number of zero Hessian eigenvalues:   0
  FOURTH criterion done:  -0.999711627114439       0.840000000000000     
  Number of structures for GDIIS interpolation:    2
  GDIIS step:     0.000067

  Transforming internal coordinate displacements to Cartesian space
      Iteration   1 residual norm     6.656318E-05
      Iteration   2 residual norm     5.391625E-09
      Transformation converged
      Residual norm:    5.391625E-09 after    2 iterations

      ****************************************************************** 
                          CONVERGENCE INFORMATION

                               Converged?     Value      Criterion
             Energy change         yes      0.0000001   0.0000001
             RMS of displacement   yes      0.0000067   0.0005000
             RMS of gradient       yes      0.0000002   0.0005000
             MAX displacement      yes      0.0000525   0.0010000
             MAX gradient          yes      0.0000007   0.0001000
      ****************************************************************** 


    ------------------------------------------------------------------------
         total  cpu-time :   0.07 seconds
         total wall-time :   0.07 seconds
    ------------------------------------------------------------------------


   ****  statpt : all done  ****


    2015-10-15 10:46:50.383 

fine, there is no data group "$actual step"
next step = ridft
 operating system is UNIX !
 hostname is         c-9-373.local

 ridft (c-9-373.local) : TURBOMOLE V7.0( ) 28 Sep 2015 at 09:54:12
 Copyright (C) 2015 TURBOMOLE GmbH, Karlsruhe


    2015-10-15 10:46:50.446 



                                  r i d f t

                        DFT program with RI approximation 
                                for coulomb part 




                                                 
                                 References:     
                                                 
          TURBOMOLE:                             
              R. Ahlrichs, M. Baer, M. Haeser, H. Horn, and
              C. Koelmel
              Electronic structure calculations on workstation
              computers: the program system TURBOMOLE
              Chem. Phys. Lett. 162: 165 (1989)
          Density Functional:                              
              O. Treutler and R. Ahlrichs                      
              Efficient Molecular Numerical Integration Schemes
              J. Chem. Phys. 102: 346 (1995)                   
          Parallel Version:                                
              Performance of parallel TURBOMOLE for Density    
              Functional Calculations                          
              M. v. Arnim and R. Ahlrichs                      
              J. Comp. Chem. 19: 1746 (1998)                   
          RI-J Method:                                     
              Auxiliary Basis Sets to approximate Coulomb      
              Potentials                                       
              Chem. Phys. Lett. 240: 283 (1995)                
              K. Eichkorn, O. Treutler, H. Oehm, M. Haeser     
              and R. Ahlrichs                                  
              Chem. Phys. Lett. 242: 652 (1995)                
                                                           
              Auxiliary Basis Sets for Main Row Atoms and their
              Use to approximate Coulomb Potentials            
              K. Eichkorn, F. Weigend, O. Treutler and         
              R. Ahlrichs                                      
              Theo. Chem. Acc. 97: 119 (1997)                   
                                                           
              Accurate Coulomb-fitting basis sets for H to Rn 
              F. Weigend                                        
              Phys. Chem. Chem. Phys. 8: 1057 (2006)            
                                                           
          Multipole accelerated RI-J (MARI-J):             
              Fast evaluation of the Coulomb potential for     
              electron densities using multipole accelerated   
              resolution of identity approximation             
              M. Sierka, A. Hogekamp and R. Ahlrichs           
              J. Chem. Phys. 118: 9136 (2003)                  
          RI-JK Method:                                     
              A fully direct RI-HF algorithm: Implementation,
              optimised auxiliary basis sets, demonstration of
              accuracy and efficiency                         
              F. Weigend                                      
              Phys. Chem. Chem. Phys. 4: 4285 (2002)           
          Two-component HF and DFT with spin-orbit coupling:  
              Self-consistent treatment of spin-orbit         
              interactions with efficient Hartree-Fock and    
              density functional methods                      
              M. K. Armbruster, F. Weigend, C. van Wüllen and 
              W. Klopper                                      
              Phys. Chem. Chem. Phys. 10: 1748 (2008)         
          Relativistic all-electron 2c calculations           
              An efficient implementation of two-component    
              relativistic exact-decoupling methods for large 
              molecules                                       
              D. Peng, N. Middendorf, F. Weigend, M. Reiher   
              J. Chem. Phys. 138, 184105 (2013)               
                                         


 


              +--------------------------------------------------+
              |      general information about current run       |
              +--------------------------------------------------+

 

 DENSITY CONVERGENCE CHECK SWITCHED ON !
 SCF CONVERGENCE IF RMS(delta[D]) <     0.1000000000E-06

 Slater Dirac exchange with PW LDA corr. functional
 A DFT calculation using the RI-J approximation will be carried out.
 Allocatable memory for RI due to $ricore (MB):        7000


              +--------------------------------------------------+
              | Atomic coordinate, charge and isotop information |
              +--------------------------------------------------+

                    atomic coordinates            atom    charge  isotop
          1.59295954   -1.47733162   -0.92597436    o      8.000     0
         -0.22471596    0.35765423   -0.00348033    c      6.000     0
          1.38938763    2.66046999    0.54727715    c      6.000     0
          3.83741593    2.10856033    0.29295349    c      6.000     0
          4.14119739   -0.61401030   -0.49689582    c      6.000     0
         -2.20190621    0.81172762   -2.14292256    c      6.000     0
          5.71216229   -1.01108304   -2.88291482    c      6.000     0
         -0.92439487    2.09771329   -4.41656349    c      6.000     0
         -4.36332728    2.51811248   -1.20317037    c      6.000     0
         -3.31712973   -1.71622089   -3.05810033    c      6.000     0
         -1.44780575   -0.62065513    2.46263125    c      6.000     0
          0.44431010   -1.69933534    4.37330683    c      6.000     0
         -0.86561226   -2.47263925    6.84087496    c      6.000     0
          0.60249590    4.46538300    1.13880185    h      1.000     0
          5.42905347    3.36839383    0.62374030    h      1.000     0
          4.97850890   -1.72907663    1.06211902    h      1.000     0
          4.99865258    0.16779085   -4.43213638    h      1.000     0
          7.69720376   -0.51164573   -2.52382075    h      1.000     0
          5.63148047   -3.00117290   -3.46360883    h      1.000     0
         -0.22189519    3.99261258   -3.93952731    h      1.000     0
          0.66967902    0.96449637   -5.10393041    h      1.000     0
         -2.29187449    2.29698882   -5.96904422    h      1.000     0
         -3.65291789    4.31293386   -0.43110231    h      1.000     0
         -5.62601500    2.97652679   -2.78900679    h      1.000     0
         -5.50603588    1.58912574    0.25892231    h      1.000     0
         -1.82031355   -2.97710220   -3.74110671    h      1.000     0
         -4.36906895   -2.70076385   -1.56510788    h      1.000     0
         -4.64174136   -1.36163198   -4.62062264    h      1.000     0
         -2.84602780   -2.09098263    2.01515894    h      1.000     0
         -2.48835868    0.95168058    3.34789459    h      1.000     0
          1.38686913   -3.34861219    3.53456476    h      1.000     0
          1.91953634   -0.29172592    4.78219745    h      1.000     0
         -2.33502020   -3.89888351    6.48727594    h      1.000     0
          0.48788336   -3.27849892    8.19346987    h      1.000     0
         -1.77463478   -0.83879833    7.74784758    h      1.000     0
 
       center of nuclear mass  :    0.26253881    0.02459357   -0.05725310
       center of nuclear charge:    0.21616297    0.01725636   -0.04820432

              +--------------------------------------------------+
              |               basis set information              |
              +--------------------------------------------------+

              we will work with the 1s 3p 5d 7f 9g ... basis set
              ...i.e. with spherical basis functions...

   type   atoms  prim   cont   basis
   ---------------------------------------------------------------------------
    o        1     46     31   def2-TZVP   [5s3p2d1f|11s6p2d1f]
    c       12     46     31   def2-TZVP   [5s3p2d1f|11s6p2d1f]
    h       22      8      6   def2-TZVP   [3s1p|5s1p]
   ---------------------------------------------------------------------------
   total:   35    774    535
   ---------------------------------------------------------------------------

   total number of primitive shells          :   46
   total number of contracted shells         :  231
   total number of cartesian basis functions :  600
   total number of SCF-basis functions       :  535


 integral neglect threshold       :  0.56E-11
 integral storage threshold THIZE :  0.10E-04
 integral storage threshold THIME :         5

 RI-J AUXILIARY BASIS SET information:

              we will work with the 1s 3p 5d 7f 9g ... basis set
              ...i.e. with spherical basis functions...

   type   atoms  prim   cont   basis
   ---------------------------------------------------------------------------
    o        1     70     49   def2-TZVP   [6s4p3d1f1g|12s5p4d2f1g]
    c       12     70     49   def2-TZVP   [6s4p3d1f1g|12s5p4d2f1g]
    h       22     16     11   def2-TZVP   [3s1p1d|5s2p1d]
   ---------------------------------------------------------------------------
   total:   35   1262    879
   ---------------------------------------------------------------------------

   total number of primitive shells          :   56
   total number of contracted shells         :  305
   total number of cartesian basis functions : 1057
   total number of SCF-basis functions       :  879


 symmetry group of the molecule :   c1 

 the group has the following generators :
   c1(z)

    1 symmetry operations found

 there are 1 real representations :   a   

 maximum number of shells which are related by symmetry :  1


    mo occupation :
   irrep   mo's   occupied
    a      535       51
 
 number of basis functions   :          535
 number of occupied orbitals :           51
 
  
           ------------------
           density functional
           ------------------
 Slater Dirac exchange with PW LDA corr. functional
 iterations will be done with small grid
  
 spherical integration : Lebedev's spherical grid
 spherical gridsize    :           5
    i.e. gridpoints    :         590
 value for diffuse not defined
 radial integration    : Chebyshev 2nd kind (scaling 3)
 radial gridsize       :           8
 integration cells     :          35
 partition function    : becke
 partition sharpness   :           3
  

 biggest AO integral is expected to be     7.998976882
  
           ------------------------
               RI-J - INFORMATION
           ------------------------
 Contributions to RI integral batches: 
  neglected integral batches:        4667
  direct contribution:                  0
  memory contribution:       22129
 Memory core needed for (P|Q) and Cholesky      6 MByte
 Memory core minimum needed except of (P|Q)     2 MByte
 Total minimum memory core needed (sum)         8 MByte
  
 ****************************************
 Memory allocated for RI-J  1242 MByte
 ****************************************
                                            

          ------------------------
          nuclear repulsion energy  :   901.599596370    
          ------------------------

 
          -----------------
          -S,T+V- integrals
          -----------------

 1e-integrals will be neglected if expon. factor < 0.556994E-12
 
   Difference densities algorithm switched on.
   The maximal number of linear combinations of
   difference densities is          20 .

 automatic virtual orbital shift switched on 
      shift if e(lumo)-e(homo) < 0.10000000    


 DIIS switched on: error vector is FDS-SDF
 Max. Iterations for DIIS is     :   4
 DIIS matrix (see manual) 
    Scaling factor of diagonals  :  1.200
    threshold for scaling factor :  0.000

 scf convergence criterion : increment of total energy < .1000000D-06
                  and increment of one-electron energy < .1000000D-03

  MOs are in ASCII format !


 reading orbital data $scfmo  from file mos . 

 orbital characterization : scfconv=7
 

 DSCF restart information will be dumped onto file mos


 Starting SCF iterations

          Overall gridpoints after grid construction =        153026

 ITERATION  ENERGY          1e-ENERGY        2e-ENERGY     RMS[dD(SAO)]   TOL
   1  -540.96936520621    -2527.3666127     1084.7976511    0.000D+00 0.556D-11
                            Exc = -76.6566837980     Coul =  1161.45433493    
                              N = 102.00009917    
                            current damping = 0.700
 
          max. resid. norm for Fia-block=  1.165D-05 for orbital     29a         
          max. resid. fock norm         =  9.730D-05 for orbital    535a         

 ITERATION  ENERGY          1e-ENERGY        2e-ENERGY     RMS[dD(SAO)]   TOL
   2  -540.96936520784    -2527.3666449     1084.7976833    0.175D-06 0.352D-11
                            Exc = -76.6566835309     Coul =  1161.45436684    
                              N = 102.00009917    
                            current damping = 0.700
 
          Norm of current diis error: 0.62074E-04
          max. resid. norm for Fia-block=  4.766D-06 for orbital     29a         
          max. resid. fock norm         =  4.004D-05 for orbital    535a         

 ENERGY & DENSITY CONVERGED !

          Overall gridpoints after grid construction =        504656

 ITERATION  ENERGY          1e-ENERGY        2e-ENERGY     RMS[dD(SAO)]   TOL
   3  -540.96932316555    -2527.3665845     1084.7976649    0.822D-07 0.281D-11
                            Exc = -76.6566418834     Coul =  1161.45430682    
                              N = 101.99996630    
                            current damping = 0.750
 
          Norm of current diis error: 0.53561E-04
          max. resid. norm for Fia-block=  1.978D-06 for orbital     29a         
          max. resid. fock norm         =  1.651D-05 for orbital    535a         

 End of SCF iterations

   convergence criteria satisfied after    3 iterations


                  ------------------------------------------ 
                 |  total energy      =   -540.96932316555  |
                  ------------------------------------------ 
                 :  kinetic energy    =    536.39892439177  :
                 :  potential energy  =  -1077.36824755732  :
                 :  virial theorem    =      1.99155146405  :
                 :  wavefunction norm =      1.00000000000  :
                  .......................................... 


 orbitals $scfmo  will be written to file mos

    irrep                 47a         48a         49a         50a         51a   
 eigenvalues H         -0.28140    -0.27688    -0.26935    -0.24249    -0.20512
            eV          -7.6573     -7.5343     -7.3296     -6.5984     -5.5817
 occupation              2.0000      2.0000      2.0000      2.0000      2.0000 

    irrep                 52a         53a         54a         55a         56a   
 eigenvalues H         -0.04148     0.00348     0.02160     0.02592     0.03495
            eV          -1.1287      0.0948      0.5878      0.7053      0.9511
 
 
 
 
 ==============================================================================
                           electrostatic moments
 ==============================================================================

 reference point for electrostatic moments:    0.00000   0.00000   0.00000

 
              nuc           elec       ->  total
 ------------------------------------------------------------------------------
                          charge      
 ------------------------------------------------------------------------------
         102.000000    -102.000000      -0.000000
 
 ------------------------------------------------------------------------------
                       dipole moment  
 ------------------------------------------------------------------------------
   x      22.048623     -21.830843       0.217780
   y       1.760149      -1.377806       0.382343
   z      -4.916841       5.097826       0.180985
 
   | dipole moment | =     0.4758 a.u. =     1.2093 debye 
 
 ------------------------------------------------------------------------------
                     quadrupole moment
 ------------------------------------------------------------------------------
  xx     976.256711   -1036.097769     -59.841059
  yy     395.110298    -458.095798     -62.985500
  zz    1085.563506   -1149.881531     -64.318025
  xy     -62.387906      62.550816       0.162910
  xz     -26.271406      26.575584       0.304178
  yz    -244.341910     244.590243       0.248334
 
     1/3  trace=     -62.381528
     anisotropy=       4.049121
 
 ==============================================================================
 
 


    ------------------------------------------------------------------------
         total  cpu-time :  22.28 seconds
         total wall-time :  22.27 seconds
    ------------------------------------------------------------------------


   ****  ridft : all done  ****


    2015-10-15 10:47:12.717 

fine, there is no data group "$actual step"
next step = rirpa
 
 
    *************************************************************************
    *************************** PROGRAM RIRPA *******************************
    ******                                                             ******
    ******              H. Eshuis, J. E. Bates and F. Furche           ******
    ******                                                             ******
    ****** Nov 2011                                                    ******
    ****** Copyright TURBOMOLE GmbH                                    ******
    *************************************************************************
    
    
                                References:                                  
    
                   RIRPA:                                                    
                     H. Eshuis, J. Yarkony and F. Furche                     
                     Fast computation of molecular random phase              
                     approximation correlation energies using resolution     
                     of the identity imaginary frequency integration         
                     J. Chem. Phys. 132: 234114 (2010)                       
    
                     H. Eshuis, J. E. Bates and F. Furche                    
                     Electron correlation methods based on                   
                     the random phase approximation                          
                     Theor. Chem. Acc.  131: 1084 (2012)                     
    
                   TWO-COMPONENT RIRPA:                                      
                     M. Kuehn                                                
                     Correlation energies from the                           
                     two-component random-phase approximation                
                     J. Chem. Theory Comput. 10: 623 (2014)                  
    
                   RIRPA GRADIENTS:                                          
                     Asbjoern M. Burow, Jefferson E. Bates, Filipp Furche*,  
                     and Henk Eshuis                                         
                     Analytical First-Order Molecular Properties and Forces  
                     within the Adiabatic Connection Random Phase            
                     Approximation                                           
                     J. Chem. Theory Comput. (2013, ASAP),                   
                     DOI: 10.1021/ct4008553                                  
    
    
    
 hostname is         c-9-373.local

 rirpa (c-9-373.local) : TURBOMOLE V7.0( ) 28 Sep 2015 at 09:54:12
 Copyright (C) 2015 TURBOMOLE GmbH, Karlsruhe


    2015-10-15 10:47:12.778 

 number of mkl threads =           8
 
                FOUND RI-J FLAG
 
  HF exact exchange energy will be computed using RI-J.


              +--------------------------------------------------+
              | Atomic coordinate, charge and isotop information |
              +--------------------------------------------------+

                    atomic coordinates            atom    charge  isotop
          1.59295954   -1.47733162   -0.92597436    o      8.000     0
         -0.22471596    0.35765423   -0.00348033    c      6.000     0
          1.38938763    2.66046999    0.54727715    c      6.000     0
          3.83741593    2.10856033    0.29295349    c      6.000     0
          4.14119739   -0.61401030   -0.49689582    c      6.000     0
         -2.20190621    0.81172762   -2.14292256    c      6.000     0
          5.71216229   -1.01108304   -2.88291482    c      6.000     0
         -0.92439487    2.09771329   -4.41656349    c      6.000     0
         -4.36332728    2.51811248   -1.20317037    c      6.000     0
         -3.31712973   -1.71622089   -3.05810033    c      6.000     0
         -1.44780575   -0.62065513    2.46263125    c      6.000     0
          0.44431010   -1.69933534    4.37330683    c      6.000     0
         -0.86561226   -2.47263925    6.84087496    c      6.000     0
          0.60249590    4.46538300    1.13880185    h      1.000     0
          5.42905347    3.36839383    0.62374030    h      1.000     0
          4.97850890   -1.72907663    1.06211902    h      1.000     0
          4.99865258    0.16779085   -4.43213638    h      1.000     0
          7.69720376   -0.51164573   -2.52382075    h      1.000     0
          5.63148047   -3.00117290   -3.46360883    h      1.000     0
         -0.22189519    3.99261258   -3.93952731    h      1.000     0
          0.66967902    0.96449637   -5.10393041    h      1.000     0
         -2.29187449    2.29698882   -5.96904422    h      1.000     0
         -3.65291789    4.31293386   -0.43110231    h      1.000     0
         -5.62601500    2.97652679   -2.78900679    h      1.000     0
         -5.50603588    1.58912574    0.25892231    h      1.000     0
         -1.82031355   -2.97710220   -3.74110671    h      1.000     0
         -4.36906895   -2.70076385   -1.56510788    h      1.000     0
         -4.64174136   -1.36163198   -4.62062264    h      1.000     0
         -2.84602780   -2.09098263    2.01515894    h      1.000     0
         -2.48835868    0.95168058    3.34789459    h      1.000     0
          1.38686913   -3.34861219    3.53456476    h      1.000     0
          1.91953634   -0.29172592    4.78219745    h      1.000     0
         -2.33502020   -3.89888351    6.48727594    h      1.000     0
          0.48788336   -3.27849892    8.19346987    h      1.000     0
         -1.77463478   -0.83879833    7.74784758    h      1.000     0
 
       center of nuclear mass  :    0.26253881    0.02459357   -0.05725310
       center of nuclear charge:    0.21616297    0.01725636   -0.04820432
              +-------------------------------------------------+
              |        Rotational Constants Section             |
              +-------------------------------------------------+
                                   Center of Mass [a.u]:
               0.26253880681757         0.02459356507867        -0.05725309861322
                     Principal Moments of Inertia [a.u.]
            2123.38722163305192      2415.51901598324321      3551.80666721981106
                       Rotational constants A,B,C [a.u.]
               0.00023547283082         0.00020699485150         0.00014077342796
                     Rotational constants A,B,C [cm**-1]
               0.02835078120392         0.02492205034752         0.01694903247052
                        Rotational constants A,B,C [MHz]
             849.93503833430191       747.14427320814536       508.11921050588097

   * BASIS SET information:

              +--------------------------------------------------+
              |               basis set information              |
              +--------------------------------------------------+

              we will work with the 1s 3p 5d 7f 9g ... basis set
              ...i.e. with spherical basis functions...

   type   atoms  prim   cont   basis
   ---------------------------------------------------------------------------
    o        1     46     31   def2-TZVP   [5s3p2d1f|11s6p2d1f]
    c       12     46     31   def2-TZVP   [5s3p2d1f|11s6p2d1f]
    h       22      8      6   def2-TZVP   [3s1p|5s1p]
   ---------------------------------------------------------------------------
   total:   35    774    535
   ---------------------------------------------------------------------------

   total number of primitive shells          :   46
   total number of contracted shells         :  231
   total number of cartesian basis functions :  600
   total number of SCF-basis functions       :  535


   * AUXILIARY BASIS SET information:

              +--------------------------------------------------+
              |               basis set information              |
              +--------------------------------------------------+

              we will work with the 1s 3p 5d 7f 9g ... basis set
              ...i.e. with spherical basis functions...

   type   atoms  prim   cont   basis
   ---------------------------------------------------------------------------
    o        1     81     76   def2-TZVP   [8s6p4d3f1g|8s6p5d3f1g]
    c       12     81     76   def2-TZVP   [8s6p4d3f1g|8s6p5d3f1g]
    h       22     23     15   def2-TZVP   [4s2p1d|4s3p2d]
   ---------------------------------------------------------------------------
   total:   35   1559   1318
   ---------------------------------------------------------------------------

   total number of primitive shells          :   55
   total number of contracted shells         :  440
   total number of cartesian basis functions : 1587
   total number of SCF-basis functions       : 1318


   * RIJ AUXILIARY BASIS SET information:

              +--------------------------------------------------+
              |               basis set information              |
              +--------------------------------------------------+

              we will work with the 1s 3p 5d 7f 9g ... basis set
              ...i.e. with spherical basis functions...

   type   atoms  prim   cont   basis
   ---------------------------------------------------------------------------
    o        1     70     49   def2-TZVP   [6s4p3d1f1g|12s5p4d2f1g]
    c       12     70     49   def2-TZVP   [6s4p3d1f1g|12s5p4d2f1g]
    h       22     16     11   def2-TZVP   [3s1p1d|5s2p1d]
   ---------------------------------------------------------------------------
   total:   35   1262    879
   ---------------------------------------------------------------------------

   total number of primitive shells          :   56
   total number of contracted shells         :  305
   total number of cartesian basis functions : 1057
   total number of SCF-basis functions       :  879


 reading orbital data $scfmo  from file mos . 

 orbital characterization : scfconv=7
 

 integral neglect threshold       :  0.27E+02

 scfconv           7

 MAXIMUM CORE MEMORY WHICH CAN BE ALLOCATED DYNAMICALLY = 20000 MiB
              ( or 2621440000 double words )


 there are 1 real representations :   a   

 maximum number of shells which are related by symmetry :  1


         --------------------------------------------------------------
                   checking mo's by calculating trace(D*S)

              number of electrons : 
                 from trace(D*S)         :  101.999999999996
                 from occupation numbers :  102.000000000000

              molecular charge           :    0.000000000000
         --------------------------------------------------------------

 time elapsed for calculating density matrices :   0.173 sec
 all orbitals will be active in the correlation treatment

     total memory allocated for calculation of (Q|P)**(-1/2) : 20 MiB


     calculation of (P|Q) ...
     time in lp2sym        cpu:  0.31 sec    wall:  0.04 sec    ratio:  8.1


     calculation of the Cholesky decomposition of (P|Q)**(-1) ...
     time in invmetri      cpu:  1.47 sec    wall:  0.18 sec    ratio:  8.0

   threshold for RMS(d[D]) in SCF was     :  0.10E-06
   integral neglect threshold             :  0.21E-11
   derivative integral neglect threshold  :  0.10E-06


 setting up bound for integral derivative estimation

 increment for numerical differentiation : 0.00050000
 total memory allocated for calculation of (Q|P)**(-1/2) : 20 MiB
 Dividing biap into         2053  block chunks,
 using                     4 MB per block
 Reserved                   9991 MB for BLAS routines
 Estimated total memory usage:                  19997 MB
 number of passes:            1
 
 Number of eigenvalues < 6e-3:            0
 
 
            -----------------------------
            Complex frequency integration
            -----------------------------
 
 Number of Clenshaw-Curtis nodes:          200
 Optimized scaling parameter    :    2.10178183025917     
 Sensitivity measure            :  -3.208883159189213E-011
 
 Allocatable memory for RI due to $ricore (MB):        7000

 there are 1 real representations :   a   

 maximum number of shells which are related by symmetry :  1

  
           ------------------------
               RI-J - INFORMATION
           ------------------------
 Contributions to RI integral batches: 
  neglected integral batches:        3510
  direct contribution:                  0
  memory contribution:       23286
 
          -----------------
          -S,T+V- integrals
          -----------------

 1e-integrals will be neglected if expon. factor < 0.210040E-11

          ------------------------
          nuclear repulsion energy  :   901.599596370    
          ------------------------


                  -------------------------------------------- 
                 |  HXX+RIRPA total energy     =   -546.20202506165  |
                  --------------------------------------------- 
                 :  RIRPA correlation energy   =     -4.13893388190  :
                 :  HXX total energy           =   -542.06309117975  :
                 :  Hartree energy             =   1161.45430682315  :
                 :  Exact Exchange energy      =    -77.75040989706  :
                  ............................................. 


    ------------------------------------------------------------------------
    Rirpa Energy profiling         cpu                    wall         ratio
    ------------------------------------------------------------------------
    module                         sec     %               sec     %
    ------------------------------------------------------------------------
    RIRPA_energy               1656.2  100.00          339.9  100.00   4.9
    riccmos                       1.8    0.11            0.2    0.06   8.0
    riccaux                       1.8    0.11            0.2    0.07   8.0
    riccbound                     3.2    0.19            0.8    0.24   3.8
    ccmkbaoi                     72.4    4.37            9.1    2.68   7.9
    ecrpa                      1423.3   85.94          181.8   53.49   7.8
    tread                       169.4   10.23           21.3    6.25   8.0
    tqbuild                    1107.2   66.85          141.5   41.62   7.8
    trpaln                       56.2    3.40            7.2    2.11   7.8
    ehxx                        152.7    9.22          147.4   43.36   1.0
    ------------------------------------------------------------------------
    sum                        4645.2  280.47          849.8  249.99   5.5
    ------------------------------------------------------------------------

 residuum convergence criterium   :  0.10E-04


 integral neglect threshold       :  0.56E-11
 integral storage threshold THIZE :  0.10E-04
 integral storage threshold THIME :         5


 WARNING : cannot change filename for statistics 
  
           ------------------
           density functional
           ------------------
 Slater Dirac exchange with PW LDA corr. functional
 iterations will be done with small grid
  
 spherical integration : Lebedev's spherical grid
 spherical gridsize    :           5
    i.e. gridpoints    :         590
 value for diffuse not defined
 radial integration    : Chebyshev 2nd kind (scaling 3)
 radial gridsize       :           8
 integration cells     :          35
 partition function    : becke
 partition sharpness   :           3
  
 preparing numerical integration ....
          Overall gridpoints after grid construction =        153026

 Calculating ground state density on molecular grid

 Integral of ground state density: N =   102.0000991689462    



          IRREP   tensor space dimension   number of roots

           a             24684                   1
 number of passes:    1
 
 Number of eigenvalues < 6e-3:            0
 
 
            -----------------------------
            Complex frequency integration
            -----------------------------
 
 Number of Clenshaw-Curtis nodes:          200
 Optimized scaling parameter    :    2.10178183025917     
 Sensitivity measure            :  -3.208883159189213E-011
 
 Contributions to RI integral batches: 
  neglected integral batches:        3884
  direct contribution:              22912
  memory contribution:           0

 maximum number of Davidson iterations set to   25


 logfile dipl_a    exists already

 found      1 converged vectors on dipl_a   
 read       1 vectors from logfile dipl_a   


                    ------------------

                     CPKS equations   

                    ------------------


                       Block Davidson iteration


 total number of roots to be determined:   1


 maximum core memory set to 20000 MB,
 corresponding to     7202 vectors in CAO basis


 maximum number of simultaneously treated vectors (including degeneracy):        1


 Iteration IRREP Converged      Max. Euclidean
                 roots          residual norm

    1       a        0        8.290406158419893D-04
 
    2       a        0        4.249019605155422D-05
 
    3       a        1        8.283356025849540D-06
 

 converged!


 Switching to fine grid

 preparing numerical integration ....
          Overall gridpoints after grid construction =        504656

 Calculating ground state density on molecular grid

 Integral of ground state density: N =   101.9999662994192    



 Iteration IRREP Converged      Max. Euclidean
                 roots          residual norm

    4       a        0        3.083340079608850D-05
 

 NOTE: Residual norms are larger than 1.00D-05 due to mgrid option!

 Eigenpairs written on logfile dipl_a   



 IRREP   Vector     Frequency            Euclidean residual norm

  a         1    0.000000000000000D+00    3.083340079608850D-05
 

                    -------------------

                     relaxed densities 

                    -------------------

    ----------------------------------------
     S+T+V CONTRIBUTIONS TO ENERGY GRADIENT 
    ----------------------------------------

 1e-integral 1st. derivatives will be neglected if expon. factor < 0.100000E-10


    -----------------------------------------------
     TWO ELECTRON CONTRIBUTIONS TO ENERGY GRADIENT 
    -----------------------------------------------

 setting up bound for integral derivative estimation

 increment for numerical differentiation : 0.00050000

 biggest AO integral is expected to be     7.998976882
 biggest cartesian 1st derivative AO integral is expected to be    17.678530758

 biggest 1-particle AO density matrix element is expected to be    0.9452655566

 core memory to be involved in 2e-gradient :
   symmetry shell pair data              :         1
   two particle density+dens. estimates  :     77421
   derivative integrals                  :    313877
   ij-primitive data                     :       324
   derivative integral bound             :     80388
   totally                               :    394587


 setting up bound for integral derivative estimation

 increment for numerical differentiation : 0.00050000

 biggest AO integral is expected to be     7.998976882
 biggest cartesian 1st derivative AO integral is expected to be    17.678530758

 2e-integral 1st. derivatives will be neglected if expon. factor < 0.935762E-20
 outer boundary for 2e-integral derivative neglection is 0.174545E-20

 Integrated ground state density     :   101.9999662994213    


          ------------------------------------------------
           cartesian gradient of the energy (hartree/bohr)
          ------------------------------------------------

  ATOM      1 o           2 c           3 c           4 c           5 c 
dE/dx  0.1311027D-06  0.1820505D-06  0.9213820D-06 -0.8638253D-06 -0.5575263D-06
dE/dy  0.2302919D-06 -0.2532386D-06  0.7145258D-06  0.1777922D-06 -0.5490274D-06
dE/dz  0.2452578D-06  0.4115055D-06  0.4932112D-07  0.1743877D-06 -0.2624863D-06

  ATOM      6 c           7 c           8 c           9 c          10 c 
dE/dx -0.2715398D-06  0.3663341D-06  0.8631798D-07 -0.2300643D-06  0.9635808D-07
dE/dy  0.9869156D-07  0.8814952D-07  0.1106545D-06  0.8854763D-07 -0.2061355D-06
dE/dz -0.1081452D-06 -0.1981249D-06 -0.1576720D-06  0.1431540D-06 -0.7071823D-07

  ATOM     11 c          12 c          13 c          14 h          15 h 
dE/dx  0.2181837D-06 -0.4795825D-06  0.6615426D-07 -0.9810464D-09  0.1575887D-06
dE/dy -0.1138368D-06  0.6720717D-08 -0.1677902D-06 -0.3198611D-06  0.4988583D-07
dE/dz  0.2242105D-09  0.2369572D-06 -0.2367199D-07 -0.1870419D-06 -0.2097011D-07

  ATOM     16 h          17 h          18 h          19 h          20 h 
dE/dx  0.1716049D-06  0.1421704D-06 -0.1245109D-06  0.4681236D-07 -0.1486589D-07
dE/dy -0.1316062D-06  0.1569102D-07 -0.1379733D-07  0.9886173D-07 -0.1390840D-08
dE/dz  0.2699527D-06  0.8634780D-07 -0.7920307D-07  0.8897825D-08  0.4040020D-07

  ATOM     21 h          22 h          23 h          24 h          25 h 
dE/dx  0.1658148D-08  0.2020500D-07  0.2763917D-07  0.7199921D-07  0.3180919D-08
dE/dy  0.2803835D-07  0.2667624D-07 -0.4984994D-07 -0.1507947D-08 -0.6021367D-07
dE/dz -0.1197334D-07  0.4027829D-07  0.2679475D-07  0.9875038D-07 -0.6317378D-07

  ATOM     26 h          27 h          28 h          29 h          30 h 
dE/dx -0.1747788D-08 -0.2197888D-07  0.3924274D-07  0.7692070D-07  0.1288396D-06
dE/dy  0.4432780D-07  0.8666284D-08  0.2367426D-07  0.8858327D-07 -0.2523950D-06
dE/dz -0.3846185D-07 -0.7112858D-07  0.1111566D-07 -0.1830019D-06  0.3022757D-07

  ATOM     31 h          32 h          33 h          34 h          35 h 
dE/dx  0.1557923D-06  0.1012581D-06  0.1764380D-06 -0.1782666D-06  0.1018221D-06
dE/dy -0.1222846D-06 -0.7830854D-07  0.6701093D-07 -0.2377702D-07 -0.3133651D-06
dE/dz -0.3358049D-07 -0.7081597D-07  0.2673327D-07 -0.1215261D-06 -0.1062496D-06
 
 resulting FORCE  (fx,fy,fz) = (0.746D-06,-.692D-06,0.924D-07)
 resulting MOMENT (mx,my,mz) = (0.720D-05,-.272D-06,0.133D-05)


 **********************************************************************
  |maximum component of gradient| : 0.92138196E-06  (atom  3 c )       
   gradient norm                  : 0.22069500E-05
 **********************************************************************

 exx =      -0.000001 eyy =       0.000002 ezz =      -0.000001
 eyz =      -0.000003 exz =       0.000000 exy =       0.000001

   ***  cartesian gradients written onto <gradient>  ***
 
 
 
 ==============================================================================
                           electrostatic moments
 ==============================================================================

 reference point for electrostatic moments:    0.00000   0.00000   0.00000

 
              nuc           gs,e       ->  gs,tot          rpa       ->  total
 ------------------------------------------------------------------------------
                          charge      
 ------------------------------------------------------------------------------
         102.000000    -102.000000      -0.000000       0.000000      -0.000000
 
 ------------------------------------------------------------------------------
                       dipole moment  
 ------------------------------------------------------------------------------
   x      22.048623     -21.830843       0.217780      -0.006429       0.211352
   y       1.760149      -1.377806       0.382343       0.030088       0.412430
   z      -4.916841       5.097826       0.180985       0.014478       0.195463
 
   | dipole moment | =     0.5030 a.u. =     1.2784 debye 
 
 ------------------------------------------------------------------------------
                     quadrupole moment
 ------------------------------------------------------------------------------
  xx     976.256711   -1036.097769     -59.841059      -0.305977     -60.147036
  yy     395.110298    -458.095798     -62.985500      -0.120065     -63.105565
  zz    1085.563506   -1149.881531     -64.318025      -0.290875     -64.608900
  xy     -62.387906      62.550816       0.162910       0.109705       0.272615
  xz     -26.271406      26.575584       0.304178      -0.013805       0.290373
  yz    -244.341910     244.590243       0.248334       0.026140       0.274474
 
     1/3  trace=     -62.620500
     anisotropy=       4.020259
 
 ==============================================================================
 

    ------------------------------------------------------------------------
    Rirpa profiling                cpu                    wall         ratio
    ------------------------------------------------------------------------
    module                         sec     %               sec     %
    ------------------------------------------------------------------------
    RIRPA                      9492.9  100.00         2456.8  100.00   3.9
    RIRPA_energy               1656.2   17.45          339.9   13.84   4.9
    ccmkbaoi                     72.4    0.76            9.1    0.37   7.9
    ecrpa                      1423.3   14.99          181.8    7.40   7.8
    tread                       169.4    1.78           21.3    0.87   8.0
    tqbuild                    1107.2   11.66          141.5    5.76   7.8
    trpaln                       56.2    0.59            7.2    0.29   7.8
    ehxx                        152.7    1.61          147.4    6.00   1.0
    RIRPA_grad                 7836.7   82.55         2116.9   86.16   3.7
    SETUP_grad                   18.5    0.19            2.9    0.12   6.4
    rirhs                      6136.0   64.64          791.9   32.23   7.7
    respon                      184.9    1.95           38.1    1.55   4.8
    rparelax                     83.0    0.87           14.3    0.58   5.8
    egdfin                     1352.5   14.25         1260.1   51.29   1.1
    ------------------------------------------------------------------------
    sum                       29749.7  313.39         7530.8  306.53   4.0
    ------------------------------------------------------------------------


    ------------------------------------------------------------------------
         total  cpu-time :  2 hours 38 minutes and 13 seconds
         total wall-time : 40 minutes and 57 seconds
    ------------------------------------------------------------------------


   ****  rirpa : all done  ****


    2015-10-15 11:28:09.643 

                                 ****   rirpa : all done  ****
fine, there is no data group "$actual step"
script actual: unknown actual step rirpa
next step = unknown
 energy change  : actual value =  -0.5270E-07 threshold =   0.1000E-06
 geom. gradient : actual value =   0.6637E-06 threshold =   0.1000E-03

CONVERGENCY CRITERIA FULFILLED IN CYCLE 16

