           Doing BLAS/Lapack in the master proc. with  4 CPUs.
           SMPCPUS    set: Shared-memory Parallelization with   4 CPUs.

           SMP Parallelization Reference:
           C. van Wullen, J. Comput. Chem. 32 (2011) 1195--1201
 operating system is UNIX !

 ridft (c-16-12.local) : TURBOMOLE V7.2 ( 21454 ) 4 Oct 2017 at 12:48:15
 Copyright (C) 2017 TURBOMOLE GmbH, Karlsruhe


    2018-05-08 21:27:09.588 



                                  r i d f t

                        DFT program with RI approximation 
                                for coulomb part 




                                                 
                                 References:     
                                                 
          TURBOMOLE:                             
              R. Ahlrichs, M. Baer, M. Haeser, H. Horn, and
              C. Koelmel
              Electronic structure calculations on workstation
              computers: the program system TURBOMOLE
              Chem. Phys. Lett. 162: 165 (1989)
          Density Functional:                              
              O. Treutler and R. Ahlrichs                      
              Efficient Molecular Numerical Integration Schemes
              J. Chem. Phys. 102: 346 (1995)                   
          Parallel Version:                                
              Performance of parallel TURBOMOLE for Density    
              Functional Calculations                          
              M. v. Arnim and R. Ahlrichs                      
              J. Comp. Chem. 19: 1746 (1998)                   
          RI-J Method:                                     
              Auxiliary Basis Sets to approximate Coulomb      
              Potentials                                       
              Chem. Phys. Lett. 240: 283 (1995)                
              K. Eichkorn, O. Treutler, H. Oehm, M. Haeser     
              and R. Ahlrichs                                  
              Chem. Phys. Lett. 242: 652 (1995)                
                                                           
              Auxiliary Basis Sets for Main Row Atoms and their
              Use to approximate Coulomb Potentials            
              K. Eichkorn, F. Weigend, O. Treutler and         
              R. Ahlrichs                                      
              Theo. Chem. Acc. 97: 119 (1997)                   
                                                           
              Accurate Coulomb-fitting basis sets for H to Rn 
              F. Weigend                                        
              Phys. Chem. Chem. Phys. 8: 1057 (2006)            
                                                           
          Multipole accelerated RI-J (MARI-J):             
              Fast evaluation of the Coulomb potential for     
              electron densities using multipole accelerated   
              resolution of identity approximation             
              M. Sierka, A. Hogekamp and R. Ahlrichs           
              J. Chem. Phys. 118: 9136 (2003)                  
          RI-JK Method:                                     
              A fully direct RI-HF algorithm: Implementation,
              optimised auxiliary basis sets, demonstration of
              accuracy and efficiency                         
              F. Weigend                                      
              Phys. Chem. Chem. Phys. 4: 4285 (2002)           
          Two-component HF and DFT with spin-orbit coupling:  
              Self-consistent treatment of spin-orbit         
              interactions with efficient Hartree-Fock and    
              density functional methods                      
              M. K. Armbruster, F. Weigend, C. van Wüllen and 
              W. Klopper                                      
              Phys. Chem. Chem. Phys. 10: 1748 (2008)         
          Relativistic all-electron 2c calculations           
              An efficient implementation of two-component    
              relativistic exact-decoupling methods for large 
              molecules                                       
              D. Peng, N. Middendorf, F. Weigend, M. Reiher   
              J. Chem. Phys. 138, 184105 (2013)               
                                         




              +--------------------------------------------------+
              |      general information about current run       |
              +--------------------------------------------------+

 

 DENSITY CONVERGENCE CHECK SWITCHED ON !
 SCF CONVERGENCE IF RMS(delta[D]) <     0.1000000000E-06

 TPSS meta-GGA functional
 exchange:    LDA + TPSS
 correlation: LDA (PW) + TPSS
 A DFT calculation using the RI-J approximation will be carried out.
 Allocatable memory for RI due to $ricore (MB):                  5000


              +--------------------------------------------------+
              | Atomic coordinate, charge and isotop information |
              +--------------------------------------------------+

                    atomic coordinates            atom    charge  isotop
         -2.32951643    2.28966581   -0.26763069    c      6.000     0
         -1.07955646    4.23679572    0.04840871    o      8.000     0
         -1.26721351    0.00734873   -0.59390591    n      7.000     0
          0.64977656   -0.17113380   -0.58265296    h      1.000     0
         -2.35122321   -1.52373097   -0.84410799    h      1.000     0
         -5.17453305    2.39382506   -0.29458293    c      6.000     0
         -5.81653043    3.11163270    1.52028768    h      1.000     0
         -6.05112046    0.57233283   -0.65424419    h      1.000     0
         -5.76364103    3.73313601   -1.73589745    h      1.000     0
          7.92780344    2.11163411   -0.22590150    n      0.000     0
          8.85382489    0.45631493   -0.44877291    h      0.000     0
          9.44643651    4.27129806    0.05846769    c      0.000     0
         11.74351584    4.09059805    0.02977262    o      0.000     0
          7.98644889    6.56791337    0.36676505    c      0.000     0
          8.97243805    8.33139231    0.59926774    h      0.000     0
          5.43690463    6.45136351    0.35603754    c      0.000     0
          4.26451088    8.10744464    0.57841465    h      0.000     0
          4.14228707    4.23607251    0.06395057    n      0.000     0
          2.19059592    4.21894958    0.06236827    h      0.000     0
          5.33449633    1.95995503   -0.24267646    c      0.000     0
          4.20597318   -0.05055477   -0.51065378    o      0.000     0
 
       center of nuclear mass  :    3.75587701    3.13141367   -0.11280522
       center of nuclear charge:   -2.55824943    2.11778090   -0.29499901

              +--------------------------------------------------+
              |               basis set information              |
              +--------------------------------------------------+

              we will work with the 1s 3p 5d 7f 9g ... basis set
              ...i.e. with spherical basis functions...

   type   atoms  prim   cont   basis
   ---------------------------------------------------------------------------
    c        6     77     55   cc-pVQZ   [5s4p3d2f1g|21s6p3d2f1g]
    o        3     77     55   cc-pVQZ   [5s4p3d2f1g|21s6p3d2f1g]
    n        3     77     55   cc-pVQZ   [5s4p3d2f1g|21s6p3d2f1g]
    h        9     32     30   cc-pVQZ   [4s3p2d1f|6s3p2d1f]
   ---------------------------------------------------------------------------
   total:   21   1212    930
   ---------------------------------------------------------------------------

   total number of primitive shells          :  111
   total number of contracted shells         :  270
   total number of cartesian basis functions : 1155
   total number of SCF-basis functions       :  930


 integral neglect threshold       :  0.29E-13
 integral storage threshold THIZE :  0.10E-04
 integral storage threshold THIME :         5

 RI-J AUXILIARY BASIS SET information:

              we will work with the 1s 3p 5d 7f 9g ... basis set
              ...i.e. with spherical basis functions...

   type   atoms  prim   cont   basis
   ---------------------------------------------------------------------------
    c        6     70     49   cc-pVQZ   [6s4p3d1f1g|12s5p4d2f1g]
    o        3     70     49   cc-pVQZ   [6s4p3d1f1g|12s5p4d2f1g]
    n        3     70     49   cc-pVQZ   [6s4p3d1f1g|12s5p4d2f1g]
    h        9     16     11   cc-pVQZ   [3s1p1d|5s2p1d]
   ---------------------------------------------------------------------------
   total:   21    984    687
   ---------------------------------------------------------------------------

   total number of primitive shells          :   80
   total number of contracted shells         :  225
   total number of cartesian basis functions :  840
   total number of SCF-basis functions       :  687


 symmetry group of the molecule :   c1 

 the group has the following generators :
   c1(z)

    1 symmetry operations found

 there are 1 real representations :   a   

 maximum number of shells which are related by symmetry :  1


    mo occupation :
   irrep   mo's   occupied
    a      930       16
 
 number of basis functions   :                    930
 number of occupied orbitals :                     16
 
  
           ------------------
           density functional
           ------------------
 Dummy atoms with grid-point found.
 DFT quadrature threshold dgrenze tightened by factor 1/10.

 TPSS meta-GGA functional
 exchange:    LDA + TPSS
 correlation: LDA (PW) + TPSS
 Dummy atoms with grid-point found.
 DFT quadrature threshold dgrenze tightened by factor 1/10.

 Dummy atoms with grid-point found.
 DFT quadrature threshold dgrenze tightened by factor 1/10.


 iterations will be done with small grid
  
 spherical integration : Lebedev's spherical grid
 spherical gridsize    :                     5
    i.e. gridpoints    :                   590
 value for diffuse not defined
 radial integration    : Chebyshev 2nd kind (scaling 3)
 radial gridsize       :                     8
 integration cells     :                    21
 partition function    : becke
 partition sharpness   :                     3
  
 found dummy atom(s) with basis: included in dft

 biggest AO integral is expected to be     4.785886462
  
           ------------------------
               RI-J - INFORMATION
           ------------------------
 Contributions to RI integral batches: 
  neglected integral batches:                 12550
  direct contribution:                            0
  memory contribution:                 24035
 Memory core needed for (P|Q) and Cholesky      4 MByte
 Memory core minimum needed except of (P|Q)     4 MByte
 Total minimum memory core needed (sum)         7 MByte
  
 ****************************************
 Memory allocated for RI-J  2688 MByte
 ****************************************
                                            

          ------------------------
          nuclear repulsion energy  :   121.912064313    
          ------------------------


         -----------------
         -S,T+V- integrals
         -----------------

 1e-integrals will be neglected if expon. factor < 0.289347E-14
 Difference densities >>NOT<< switched on in parallel ridft!

 DIIS switched on: error vector is FDS-SDF
 Max. Iterations for DIIS is     :   4
 DIIS matrix (see manual) 
    Scaling factor of diagonals  :  1.200
    threshold for scaling factor :  0.000

 scf convergence criterion : increment of total energy < .1000000D-08
                  and increment of one-electron energy < .1000000D-05

  MOs are in ASCII format !


 automatic virtual orbital shift switched on 
      shift if e(lumo)-e(homo) < 0.10000000    


 reading orbital data $scfmo  from file mos
 orbital characterization : expanded
 mo provided and orthogonalized by Cholesky decomposition

 DSCF restart information will be dumped onto file mos


 Starting SCF iterations

          Overall gridpoints after grid construction =        138432

 ITERATION  ENERGY          1e-ENERGY        2e-ENERGY     RMS[dD(SAO)]   TOL
   1  -208.36456769453    -521.55538078     191.27874877    0.000D+00 0.289D-13
                            Exc = -28.0661864927     Coul =  219.344935262    
                              N = 32.000078480    
                            current damping = 0.700
 
          max. resid. norm for Fia-block=  4.073D-01 for orbital     12a         
          max. resid. fock norm         =  3.083D+01 for orbital    900a         

 ITERATION  ENERGY          1e-ENERGY        2e-ENERGY     RMS[dD(SAO)]   TOL
   2  -209.17887367222    -523.95751820     192.86658022    0.188D-02 0.289D-13
                            Exc = -28.1055494994     Coul =  220.972129717    
                              N = 32.000065994    
                            current damping = 0.650
 
          Norm of current diis error:  2.3752    
          max. resid. norm for Fia-block=  1.601D-01 for orbital      1a         
          max. resid. fock norm         =  2.869D-01 for orbital    770a         

 ITERATION  ENERGY          1e-ENERGY        2e-ENERGY     RMS[dD(SAO)]   TOL
   3  -209.29880243156    -525.06621239     193.85534565    0.968D-03 0.289D-13
                            Exc = -28.2664646950     Coul =  222.121810342    
                              N = 32.000056904    
                            current damping = 0.550
 
          Norm of current diis error:  1.1268    
          max. resid. norm for Fia-block=  6.227D-02 for orbital      1a         
          max. resid. fock norm         =  8.048D-02 for orbital    917a         

 ITERATION  ENERGY          1e-ENERGY        2e-ENERGY     RMS[dD(SAO)]   TOL
   4  -209.33525040818    -524.90875251     193.66143779    0.698D-03 0.289D-13
                            Exc = -28.2466745954     Coul =  221.908112384    
                              N = 32.000053886    
                            current damping = 0.600
 
          Norm of current diis error: 0.46259    
          max. resid. norm for Fia-block=  3.065D-02 for orbital      5a         
          max. resid. fock norm         =  6.400D-02 for orbital    783a         

 ITERATION  ENERGY          1e-ENERGY        2e-ENERGY     RMS[dD(SAO)]   TOL
   5  -209.34032963924    -525.32398984     194.07159589    0.222D-03 0.289D-13
                            Exc = -28.3078621998     Coul =  222.379458091    
                              N = 32.000051685    
                            current damping = 0.650
 
          Norm of current diis error: 0.27158    
          max. resid. norm for Fia-block=  9.773D-03 for orbital     16a         
          max. resid. fock norm         =  1.482D-02 for orbital    815a         
          mo-orthogonalization: Cholesky decomposition

 ITERATION  ENERGY          1e-ENERGY        2e-ENERGY     RMS[dD(SAO)]   TOL
   6  -209.34261828811    -525.29560233     194.04091973    0.186D-03 0.289D-13
                            Exc = -28.3045349097     Coul =  222.345454639    
                              N = 32.000051287    
                            current damping = 0.700
 
          Norm of current diis error: 0.67318E-01
          max. resid. norm for Fia-block=  3.598D-03 for orbital      1a         
          max. resid. fock norm         =  6.877D-03 for orbital    776a         

 ITERATION  ENERGY          1e-ENERGY        2e-ENERGY     RMS[dD(SAO)]   TOL
   7  -209.34278588288    -525.24692547     193.99207527    0.723D-04 0.289D-13
                            Exc = -28.2997287576     Coul =  222.291804031    
                              N = 32.000051232    
                            current damping = 0.550
 
          Norm of current diis error: 0.29588E-01
          max. resid. norm for Fia-block=  1.859D-03 for orbital      5a         
          max. resid. fock norm         =  3.990D-03 for orbital    776a         

 ITERATION  ENERGY          1e-ENERGY        2e-ENERGY     RMS[dD(SAO)]   TOL
   8  -209.34281561426    -525.27325475     194.01837482    0.241D-04 0.289D-13
                            Exc = -28.3035933640     Coul =  222.321968186    
                              N = 32.000051078    
                            current damping = 0.600
 
          Norm of current diis error: 0.97010E-02
          max. resid. norm for Fia-block=  5.405D-04 for orbital      5a         
          max. resid. fock norm         =  1.651D-03 for orbital    844a         

 ITERATION  ENERGY          1e-ENERGY        2e-ENERGY     RMS[dD(SAO)]   TOL
   9  -209.34281946799    -525.27679818     194.02191440    0.995D-05 0.289D-13
                            Exc = -28.3039335623     Coul =  222.325847963    
                              N = 32.000051051    
                            current damping = 0.450
 
          Norm of current diis error: 0.36019E-02
          max. resid. norm for Fia-block=  2.080D-04 for orbital     16a         
          max. resid. fock norm         =  6.131D-04 for orbital    845a         

 ITERATION  ENERGY          1e-ENERGY        2e-ENERGY     RMS[dD(SAO)]   TOL
  10  -209.34281992457    -525.27298245     194.01809821    0.552D-05 0.289D-13
                            Exc = -28.3037055745     Coul =  222.321803787    
                              N = 32.000051041    
                            current damping = 0.500
 
          Norm of current diis error: 0.22011E-02
          max. resid. norm for Fia-block=  1.222D-04 for orbital     15a         
          max. resid. fock norm         =  2.644D-04 for orbital    776a         
          mo-orthogonalization: Cholesky decomposition

 ITERATION  ENERGY          1e-ENERGY        2e-ENERGY     RMS[dD(SAO)]   TOL
  11  -209.34282002912    -525.27458192     194.01969758    0.885D-06 0.289D-13
                            Exc = -28.3039350776     Coul =  222.323632659    
                              N = 32.000051034    
                            current damping = 0.550
 
          Norm of current diis error: 0.13628E-02
          max. resid. norm for Fia-block=  4.755D-05 for orbital      9a         
          max. resid. fock norm         =  9.112D-05 for orbital    815a         

 ITERATION  ENERGY          1e-ENERGY        2e-ENERGY     RMS[dD(SAO)]   TOL
  12  -209.34282007416    -525.27585200     194.02096761    0.472D-06 0.289D-13
                            Exc = -28.3040219952     Coul =  222.324989607    
                              N = 32.000051032    
                            current damping = 0.400
 
          Norm of current diis error: 0.32672E-03
          max. resid. norm for Fia-block=  1.824D-05 for orbital     15a         
          max. resid. fock norm         =  3.326D-05 for orbital    845a         

 ITERATION  ENERGY          1e-ENERGY        2e-ENERGY     RMS[dD(SAO)]   TOL
  13  -209.34282007648    -525.27511663     194.02023224    0.375D-06 0.289D-13
                            Exc = -28.3039422172     Coul =  222.324174459    
                              N = 32.000051033    
                            current damping = 0.450
 
          Norm of current diis error: 0.21656E-03
          max. resid. norm for Fia-block=  7.839D-06 for orbital      8a         
          max. resid. fock norm         =  1.283D-05 for orbital    815a         

 DENSITY CONVERGED !


 ITERATION  ENERGY          1e-ENERGY        2e-ENERGY     RMS[dD(SAO)]   TOL
  14  -209.34282007743    -525.27514420     194.02025981    0.450D-07 0.289D-13
                            Exc = -28.3039605694     Coul =  222.324220375    
                              N = 32.000051032    
                            current damping = 0.500
 
          Norm of current diis error: 0.74177E-04
          max. resid. norm for Fia-block=  2.702D-06 for orbital     15a         
          max. resid. fock norm         =  5.789D-06 for orbital    815a         

 DENSITY CONVERGED !


 ITERATION  ENERGY          1e-ENERGY        2e-ENERGY     RMS[dD(SAO)]   TOL
  15  -209.34282007755    -525.27523166     194.02034727    0.235D-07 0.289D-13
                            Exc = -28.3039667176     Coul =  222.324313991    
                              N = 32.000051032    
                            current damping = 0.350
 
          Norm of current diis error: 0.20373E-04
          max. resid. norm for Fia-block=  1.022D-06 for orbital     15a         
          max. resid. fock norm         =  2.883D-06 for orbital    815a         
          mo-orthogonalization: Cholesky decomposition

 ENERGY & DENSITY CONVERGED !

          Overall gridpoints after grid construction =        338126

 ITERATION  ENERGY          1e-ENERGY        2e-ENERGY     RMS[dD(SAO)]   TOL
  16  -209.34276104996    -525.27524405     194.02041869    0.130D-07 0.289D-13
                            Exc = -28.3039077781     Coul =  222.324326465    
                              N = 31.999993122    
                            current damping = 0.200
 
          Norm of current diis error: 0.17271E-04
          max. resid. norm for Fia-block=  3.960D-07 for orbital     15a         
          max. resid. fock norm         =  1.053D-06 for orbital    845a         

 End of SCF iterations

   convergence criteria satisfied after    16 iterations


                  ------------------------------------------ 
                 |  total energy      =   -209.34276104996  |
                  ------------------------------------------ 
                 :  kinetic energy    =    208.53914477151  :
                 :  potential energy  =   -417.88190582147  :
                 :  virial theorem    =      1.99616124162  :
                 :  wavefunction norm =      1.00000000000  :
                  .......................................... 


 <geterg> : there is no data group $energy 


 <skperg> : $end is missing 


 orbitals $scfmo  will be written to file mos

    irrep                 12a         13a         14a         15a         16a   
 eigenvalues H         -0.36846    -0.35069    -0.33057    -0.23814    -0.20736
            eV         -10.0263     -9.5429     -8.9953     -6.4802     -5.6426
 occupation              2.0000      2.0000      2.0000      2.0000      2.0000 

    irrep                 17a         18a         19a         20a         21a   
 eigenvalues H         -0.00884    -0.00442     0.03039     0.04672     0.06733
            eV          -0.2406     -0.1203      0.8271      1.2714      1.8321
 
 
 
 
 ==============================================================================
                           electrostatic moments
 ==============================================================================

 reference point for electrostatic moments:    0.00000   0.00000   0.00000

 
              nuc           elec       ->  total
 ------------------------------------------------------------------------------
                          charge      
 ------------------------------------------------------------------------------
          32.000000     -32.000000       0.000000
 
 ------------------------------------------------------------------------------
                       dipole moment  
 ------------------------------------------------------------------------------
   x     -81.863982      81.323519      -0.540463
   y      67.768989     -69.225005      -1.456016
   z      -9.439968       9.214840      -0.225128
 
   | dipole moment | =     1.5693 a.u. =     3.9888 debye 
 
 ------------------------------------------------------------------------------
                     quadrupole moment
 ------------------------------------------------------------------------------
  xx     323.397086    -337.590889     -14.193803
  yy     235.738860    -259.817739     -24.078879
  zz      10.242901     -28.662338     -18.419436
  xy    -182.587699     182.304068      -0.283630
  xz      24.464128     -24.131743       0.332385
  yz      -7.035862       7.033935      -0.001927
 
     1/3  trace=     -18.897373
     anisotropy=       8.623966
 
 ==============================================================================
 


    ------------------------------------------------------------------------
         total  cpu-time : 16 minutes and 14 seconds
         total wall-time :  4 minutes and 38 seconds
    ------------------------------------------------------------------------

   ****  ridft : all done  ****


    2018-05-08 21:31:47.869 

