           Doing BLAS/Lapack in the master proc. with 16 CPUs.
           SMPCPUS    set: Shared-memory Parallelization with  28 CPUs.

           SMP Parallelization Reference:
           C. van Wullen, J. Comput. Chem. 32 (2011) 1195--1201
 operating system is UNIX !

 dscf (c-19-412.gp.local) : TURBOMOLE V7.2 ( 21454 ) 4 Oct 2017 at 12:48:15
 Copyright (C) 2017 TURBOMOLE GmbH, Karlsruhe


    2018-03-05 09:36:54.966 



                             d s c f - program

                   idea & directorship : reinhart ahlrichs
                   program development : marco haeser
                                         michael baer
                           dft version : oliver treutler


                          quantum chemistry group
                          universitaet  karlsruhe
                                  germany




                          References             
                                                 
          TURBOMOLE:                             
              R. Ahlrichs, M. Baer, M. Haeser, H. Horn, and
              C. Koelmel
              Electronic structure calculations on workstation
              computers: the program system TURBOMOLE
              Chem. Phys. Lett. 162: 165 (1989)
          Density Functional:                              
              O. Treutler and R. Ahlrichs                      
              Efficient Molecular Numerical Integration Schemes
              J. Chem. Phys. 102: 346 (1995)                   
          Parallel Version:                                
              Performance of parallel TURBOMOLE for Density    
              Functional Calculations                          
              M. v. Arnim and R. Ahlrichs                      
              J. Comp. Chem. 19: 1746 (1998)                   
                                         




              +--------------------------------------------------+
              | Atomic coordinate, charge and isotop information |
              +--------------------------------------------------+

                    atomic coordinates            atom    charge  isotop
          1.47196811   -1.86848036   -8.95518126    c      6.000     0
          2.29238430    2.36782832   -8.62296945    c      6.000     0
         -0.83269970   -0.55180433   -9.27896372    c      6.000     0
         -0.32736907    2.06501608   -9.07310178    c      6.000     0
          3.40238123   -0.06421552   -8.54018425    c      6.000     0
         -3.17627021   -1.65580103   -8.88876123    c      6.000     0
         -2.16060394    3.83039748   -8.44621261    c      6.000     0
          1.66818139   -4.37395809   -8.21335678    c      6.000     0
          3.32299130    4.51158891   -7.52354761    c      6.000     0
          5.67552383   -0.56730860   -7.33633322    c      6.000     0
          5.87616619    4.11964842   -6.57718596    c      6.000     0
          4.20841006   -5.06686530   -7.44264075    c      6.000     0
         -4.70735838    2.80673494   -8.51536936    c      6.000     0
         -5.19822113    0.18036242   -8.56507956    c      6.000     0
         -3.04528916   -4.38316550   -8.61798799    c      6.000     0
         -1.10696501    6.22523884   -7.59583483    c      6.000     0
         -0.75531554   -5.66891070   -8.12348814    c      6.000     0
          1.52749423    6.57851354   -7.31713208    c      6.000     0
          6.14157074   -8.60084304   -4.25356304    c      6.000     0
          9.17981129    5.21620448   -2.62548068    c      6.000     0
          6.07924720   -3.24966685   -6.86418050    c      6.000     0
          7.03389432    1.71109951   -6.62484464    c      6.000     0
          7.87357466   -6.79491205   -3.40651793    c      6.000     0
         10.41571202    2.90225688   -2.93064839    c      6.000     0
         -9.02992579    3.90881616   -5.99137512    c      6.000     0
         -9.48499554    1.31860859   -5.75331147    c      6.000     0
         -5.93242750   -7.79904374   -6.13828358    c      6.000     0
         -1.58120953   10.10491523   -4.07726456    c      6.000     0
         -3.71651613   -8.99435180   -5.34067377    c      6.000     0
          1.02091812   10.55498186   -4.11299880    c      6.000     0
         -3.70062764  -10.36040849   -3.07738833    c      6.000     0
          2.21332825   11.68536108   -2.04643808    c      6.000     0
         -3.01292209   10.82503072   -1.97555398    c      6.000     0
         -8.12151385   -7.91449618   -4.66836397    c      6.000     0
        -10.92615610    0.41517518   -3.72912132    c      6.000     0
         -9.96387225    5.60254648   -4.19426702    c      6.000     0
          5.40438253  -10.59068716   -2.68307755    c      6.000     0
          9.31933651    6.48714218   -0.31178830    c      6.000     0
          8.91781767   -7.01031331   -0.98780118    c      6.000     0
         11.75130533    1.82315755   -0.92496869    c      6.000     0
         10.73861358    5.46083547    1.65610150    c      6.000     0
          6.49678069  -10.82827150   -0.29615734    c      6.000     0
          8.25832245   -9.05164919    0.54144338    c      6.000     0
         11.93828924    3.13007764    1.35620050    c      6.000     0
        -11.93489824    2.11397082   -1.98782252    c      6.000     0
        -11.44523089    4.69811631   -2.21168724    c      6.000     0
         -1.83710743   12.03308399    0.04788371    c      6.000     0
         -8.10831238   -9.31789760   -2.43838714    c      6.000     0
         -5.90768907  -10.54598561   -1.65277144    c      6.000     0
          0.76837461   12.45596663    0.01729342    c      6.000     0
          7.55003503    6.65665610   -5.16761445    s     16.000     0
          5.02139032   -8.30932055   -7.38255204    s     16.000     0
         -8.34259492   -0.85195031   -8.03158400    s     16.000     0
         -7.29464587    4.92191588   -8.65764300    s     16.000     0
         -0.92465936   -8.88238093   -7.18698146    s     16.000     0
          2.68850977    9.68523152   -6.86828286    s     16.000     0
         -5.83235443   -6.18039006   -9.05502758    s     16.000     0
         -3.13866991    8.73573088   -6.70588781    s     16.000     0
          8.89895234   -4.30007297   -5.39007128    s     16.000     0
         10.30070969    1.47989545   -5.94713690    s     16.000     0
         10.23049320   -5.58269195   -0.31853914    h      1.000     0
         12.65382913   -0.00174400   -1.17541946    h      1.000     0
         -1.96399045  -11.24605416   -2.43842444    h      1.000     0
          4.24408719   11.97216151   -2.08303894    h      1.000     0
         -9.54590362    7.60246883   -4.37558665    h      1.000     0
        -11.23188957   -1.60285325   -3.52185806    h      1.000     0
         -9.80877082   -6.92614166   -5.28759878    h      1.000     0
         -5.02428054   10.42339876   -1.93061810    h      1.000     0
          8.31838214    8.26108966   -0.06677109    h      1.000     0
          4.01522629  -11.94421365   -3.35074951    h      1.000     0
          9.08169904   -9.22116715    2.41302596    h      1.000     0
         13.00207849    2.31491749    2.90982205    h      1.000     0
         10.85729929    6.45680509    3.44586710    h      1.000     0
          5.95634315  -12.39126578    0.91836193    h      1.000     0
        -12.19908945    6.01000643   -0.82572254    h      1.000     0
        -13.05961668    1.41179184   -0.42228647    h      1.000     0
         -9.81150103   -9.43506501   -1.30005183    h      1.000     0
         -2.95174002   12.59985992    1.67426549    h      1.000     0
          1.68035037   13.36225354    1.61639387    h      1.000     0
         -5.89347655  -11.60913836    0.10158531    h      1.000     0
          4.99044559   -3.37229713    1.76004555    c      6.000     0
         -0.76093402    6.38996007    2.38554806    c      6.000     0
          5.39828101   -3.43830005    6.30132280    c      6.000     0
         -0.36570287    6.33839279    6.92786105    c      6.000     0
         -6.78320793   -0.97470059    7.39519450    c      6.000     0
         -4.07408514   -5.56878195    7.10030126    c      6.000     0
         -4.47143726   -5.50953227    2.55779284    c      6.000     0
         -7.18220753   -0.91727600    2.85159197    c      6.000     0
          3.60648663   -5.47859459    6.43113032    c      6.000     0
         -3.00923442    5.74369228    7.15202612    c      6.000     0
          3.20084428   -5.41346698    1.88968022    c      6.000     0
         -3.40478532    5.79614543    2.60927694    c      6.000     0
         -6.52786506    1.73173939    7.40756796    c      6.000     0
         -1.98453246   -6.58509370    2.32748111    c      6.000     0
         -6.92541000    1.79060778    2.86403294    c      6.000     0
         -1.58931966   -6.64625433    6.86995924    c      6.000     0
          4.11414538    4.27479174    1.93507734    c      6.000     0
          5.48565014    1.93372044    1.78794547    c      6.000     0
          5.89933192    1.88420879    6.32514697    c      6.000     0
          4.52241641    4.22396044    6.47544271    c      6.000     0
          4.49135544   -1.95679177   -0.52329137    c      6.000     0
          0.10172829    5.48788539   -0.04501407    c      6.000     0
          5.29607114   -2.07531329    8.66946428    c      6.000     0
          0.90577897    5.37173869    9.14673308    c      6.000     0
         -5.91027911    2.55033188    0.44252078    c      6.000     0
         -5.10596474    2.43278455    9.63417943    c      6.000     0
         -0.96458533   -5.83503755   -0.09462877    c      6.000     0
         -0.16194478   -5.95435289    9.09627171    c      6.000     0
         -6.32418387   -1.83233350    0.42215347    c      6.000     0
         -5.51872979   -1.94830001    9.61428254    c      6.000     0
         -4.99120412   -4.09577110    0.27627939    c      6.000     0
         -4.18507489   -4.21032884    9.46929889    c      6.000     0
         -3.37311392    4.40724348    9.50781559    c      6.000     0
         -4.17854790    4.52522553    0.31567213    c      6.000     0
          2.39517529   -5.37868802    8.87993304    c      6.000     0
          1.59236931   -5.26505315   -0.31437003    c      6.000     0
          3.31114862    4.33028000    8.92379004    c      6.000     0
          4.73717364    0.65979942   -0.50825264    c      6.000     0
          5.54249165    0.54380368    8.68109159    c      6.000     0
          2.50607220    4.44923480   -0.26849867    c      6.000     0
          2.39427771   -3.13207600   -1.83357372    c      6.000     0
         -2.01513707    4.34616923   -1.35104733    c      6.000     0
         -0.95383722    4.18942697   10.77038185    c      6.000     0
          3.45139465   -3.28399704   10.29117128    c      6.000     0
          3.95554043    2.06202011   10.31529713    c      6.000     0
          2.89438838    2.21642683   -1.80112265    c      6.000     0
         -1.76931420   -4.46018585   10.73203493    c      6.000     0
         -2.83064790   -4.30728624   -1.38858337    c      6.000     0
         -5.55087366    0.31257894   -1.09032285    c      6.000     0
         -4.49181826    0.15864067   11.02789484    c      6.000     0
          2.16200643    0.90509332   11.87223531    c      6.000     0
          0.85682009    1.09486065   -3.04675248    c      6.000     0
         -0.76253579   -2.42674605   12.08532458    c      6.000     0
         -2.15330394   -0.06736938   12.23662616    c      6.000     0
         -2.06843200   -2.23763559   -2.83724992    c      6.000     0
         -3.45943442    0.12189091   -2.68965409    c      6.000     0
         -0.34598948    1.99190306   12.10492014    c      6.000     0
          1.90451767   -1.82609260   11.86011475    c      6.000     0
         -1.65095965    2.18165286   -2.81674541    c      6.000     0
          0.59949067   -1.63669470   -3.06298730    c      6.000     0
         -6.84718089   -2.35569387    5.09405224    c      6.000     0
         -5.43869098   -4.74203497    4.94049577    c      6.000     0
          6.16716154    0.57690065    3.99632352    c      6.000     0
          3.38414106    5.31098398    4.29930295    c      6.000     0
          0.84706043    6.40855444    4.53378931    c      6.000     0
          5.91043484   -2.18451267    3.98286744    c      6.000     0
         -6.33031549    3.12074737    5.11859271    c      6.000     0
         -0.40924547   -6.92113167    4.47424943    c      6.000     0
         -4.50144531    5.20377765    4.98603431    c      6.000     0
          2.28782661   -6.31282282    4.24574410    c      6.000     0
 
       center of nuclear mass  :    0.10939954    0.03044796   -0.70552390
       center of nuclear charge:    0.10724342    0.03031229   -0.70426789

              +--------------------------------------------------+
              |               basis set information              |
              +--------------------------------------------------+

              we will work with the 1s 3p 5d 7f 9g ... basis set
              ...i.e. with spherical basis functions...

   type   atoms  prim   cont   basis
   ---------------------------------------------------------------------------
    c      120     77     55   cc-pVQZ   [5s4p3d2f1g|21s6p3d2f1g]
    s       10    137     59   cc-pVQZ   [6s5p3d2f1g|42s19p3d2f1g]
    h       20     32     30   cc-pVQZ   [4s3p2d1f|6s3p2d1f]
   ---------------------------------------------------------------------------
   total:  150  11250   7790
   ---------------------------------------------------------------------------

   total number of primitive shells          :  112
   total number of contracted shells         : 2170
   total number of cartesian basis functions : 9840
   total number of SCF-basis functions       : 7790


 integral neglect threshold       :  0.34E-12
 integral storage threshold THIZE :  0.10E-04
 integral storage threshold THIME :         5


 DENSITY CONVERGENCE CHECK SWITCHED ON !
 SCF CONVERGENCE IF RMS(delta[D]) <     0.1000000000E-06


 symmetry group of the molecule :   c1 

 the group has the following generators :
   c1(z)

    1 symmetry operations found

 there are 1 real representations :   a   

 maximum number of shells which are related by symmetry :  1


    mo occupation :
   irrep   mo's   occupied
    a     7790      450
 
 number of basis functions   :                   7790
 number of occupied orbitals :                    450
 

 automatic virtual orbital shift switched on 
      shift if e(lumo)-e(homo) < 0.10000000    


          ------------------------
          nuclear repulsion energy  :   36074.2478674    
          ------------------------


         -----------------
         -S,T+V- integrals
         -----------------

 1e-integrals will be neglected if expon. factor < 0.339630E-13
 
   Difference densities algorithm switched on.
   The maximal number of linear combinations of
   difference densities is                    20 .

 DIIS switched on: error vector is FDS-SDF
 Max. Iterations for DIIS is     :   5
 DIIS matrix (see manual) 
    Scaling factor of diagonals  :  1.200
    threshold for scaling factor :  0.000

 scf convergence criterion : increment of total energy < .1000000D-06
                  and increment of one-electron energy < .1000000D-03

  MOs are in ASCII format !


 reading orbital data $scfmo  from file mos
 orbital characterization : expanded
 mo provided and orthogonalized by Cholesky decomposition

 DSCF restart information will be dumped onto file mos

 
                                              current damping :  0.300
 ITERATION  ENERGY          1e-ENERGY        2e-ENERGY     RMS[dD(SAO)]   TOL
   1  -8513.7732478813    -83498.118901     38910.097786    0.000D+00 0.339D-12
          max. resid. norm for Fia-block=  2.260D+00 for orbital     10a         
          max. resid. fock norm         =  6.856D+00 for orbital   6752a         
          Delta Eig. =   494.7165855149 eV 
 
                                              current damping :  0.250
 ITERATION  ENERGY          1e-ENERGY        2e-ENERGY     RMS[dD(SAO)]   TOL
   2  -8529.8784737962    -83697.647799     39093.521457    0.356D-01 0.339D-12
          Norm of current diis error:  10.595    
          max. resid. norm for Fia-block=  4.953D-01 for orbital      4a         
          max. resid. fock norm         =  5.730D-01 for orbital      4a         
          Delta Eig. =   127.2215996446 eV 
 
                                              current damping :  0.200
 ITERATION  ENERGY          1e-ENERGY        2e-ENERGY     RMS[dD(SAO)]   TOL
   3  -8531.8929974105    -83647.835005     39041.694140    0.541D-02 0.234D-12
          Norm of current diis error:  4.5119    
          max. resid. norm for Fia-block=  1.014D-01 for orbital      6a         
          max. resid. fock norm         =  1.175D-01 for orbital      3a         
          Delta Eig. =    25.0605313683 eV 
 
                                              current damping :  0.250
 ITERATION  ENERGY          1e-ENERGY        2e-ENERGY     RMS[dD(SAO)]   TOL
   4  -8532.3626176402    -83706.421037     39099.810552    0.581D-03 0.188D-12
          Norm of current diis error:  1.7275    
          max. resid. norm for Fia-block=  2.257D-02 for orbital    450a         
          max. resid. fock norm         =  5.503D-02 for orbital    201a         
          Delta Eig. =     5.5772546203 eV 
 
                                              current damping :  0.300
 ITERATION  ENERGY          1e-ENERGY        2e-ENERGY     RMS[dD(SAO)]   TOL
   5  -8532.4421032912    -83686.049017     39079.359046    0.409D-03 0.163D-12
          Norm of current diis error: 0.72715    
          max. resid. norm for Fia-block=  1.006D-02 for orbital    443a         
          max. resid. fock norm         =  2.643D-02 for orbital    186a         
 mo-orthogonalization: Cholesky decomposition
          Delta Eig. =     1.0039047178 eV 
 
                                              current damping :  0.350
 ITERATION  ENERGY          1e-ENERGY        2e-ENERGY     RMS[dD(SAO)]   TOL
   6  -8532.4604679195    -83689.490671     39082.782336    0.174D-03 0.148D-12
          Norm of current diis error: 0.28949    
          max. resid. norm for Fia-block=  5.886D-03 for orbital    444a         
          max. resid. fock norm         =  7.489D-03 for orbital    455a         
          Delta Eig. =     0.2769378378 eV 
 
                                              current damping :  0.200
 ITERATION  ENERGY          1e-ENERGY        2e-ENERGY     RMS[dD(SAO)]   TOL
   7  -8532.4651980455    -83689.550068     39082.837002    0.713D-04 0.140D-12
          Norm of current diis error: 0.12771    
          max. resid. norm for Fia-block=  3.729D-03 for orbital    398a         
          max. resid. fock norm         =  3.994D-03 for orbital    456a         
          Delta Eig. =     0.0761501055 eV 
 
                                              current damping :  0.250
 ITERATION  ENERGY          1e-ENERGY        2e-ENERGY     RMS[dD(SAO)]   TOL
   8  -8532.4667891612    -83689.447462     39082.732805    0.526D-04 0.131D-12
          Norm of current diis error: 0.59865E-01
          max. resid. norm for Fia-block=  2.022D-03 for orbital    444a         
          max. resid. fock norm         =  2.293D-03 for orbital    456a         
          Delta Eig. =     0.0395685924 eV 
 
                                              current damping :  0.100
 ITERATION  ENERGY          1e-ENERGY        2e-ENERGY     RMS[dD(SAO)]   TOL
   9  -8532.4671379052    -83689.396884     39082.681878    0.215D-04 0.124D-12
          Norm of current diis error: 0.31369E-01
          max. resid. norm for Fia-block=  9.170D-04 for orbital    449a         
          max. resid. fock norm         =  1.020D-03 for orbital    456a         
          Delta Eig. =     0.0295632183 eV 
 
                                              current damping :  0.150
 ITERATION  ENERGY          1e-ENERGY        2e-ENERGY     RMS[dD(SAO)]   TOL
  10  -8532.4672301504    -83689.460655     39082.745558    0.105D-04 0.119D-12
          Norm of current diis error: 0.16279E-01
          max. resid. norm for Fia-block=  4.426D-04 for orbital    444a         
          max. resid. fock norm         =  4.931D-04 for orbital    456a         
 mo-orthogonalization: Cholesky decomposition
          Delta Eig. =     0.0154148959 eV 
 
                                              current damping :  0.200
 ITERATION  ENERGY          1e-ENERGY        2e-ENERGY     RMS[dD(SAO)]   TOL
  11  -8532.4672475604    -83689.427505     39082.712390    0.402D-05 0.116D-12
          Norm of current diis error: 0.74595E-02
          max. resid. norm for Fia-block=  2.596D-04 for orbital    449a         
          max. resid. fock norm         =  2.692D-04 for orbital    449a         
          Delta Eig. =     0.0100714700 eV 
 
                                              current damping :  0.250
 ITERATION  ENERGY          1e-ENERGY        2e-ENERGY     RMS[dD(SAO)]   TOL
  12  -8532.4672516419    -83689.456223     39082.741104    0.182D-05 0.114D-12
          Norm of current diis error: 0.39783E-02
          max. resid. norm for Fia-block=  1.387D-04 for orbital    449a         
          max. resid. fock norm         =  1.517D-04 for orbital    449a         
          Delta Eig. =     0.0071507539 eV 
 
                                              current damping :  0.300
 ITERATION  ENERGY          1e-ENERGY        2e-ENERGY     RMS[dD(SAO)]   TOL
  13  -8532.4672527483    -83689.440002     39082.724882    0.946D-06 0.112D-12
          Norm of current diis error: 0.20898E-02
          max. resid. norm for Fia-block=  8.696D-05 for orbital    449a         
          max. resid. fock norm         =  9.254D-05 for orbital    451a         
          Delta Eig. =     0.0019512844 eV 
 
                                              current damping :  0.350
 ITERATION  ENERGY          1e-ENERGY        2e-ENERGY     RMS[dD(SAO)]   TOL
  14  -8532.4672530939    -83689.452978     39082.737857    0.479D-06 0.109D-12
          Norm of current diis error: 0.11473E-02
          max. resid. norm for Fia-block=  5.611D-05 for orbital    449a         
          max. resid. fock norm         =  5.692D-05 for orbital    449a         
          Delta Eig. =     0.0007418256 eV 
 
                                              current damping :  0.400
 ITERATION  ENERGY          1e-ENERGY        2e-ENERGY     RMS[dD(SAO)]   TOL
  15  -8532.4672532104    -83689.448260     39082.733139    0.270D-06 0.107D-12
          Norm of current diis error: 0.61403E-03
          max. resid. norm for Fia-block=  3.462D-05 for orbital    449a         
          max. resid. fock norm         =  3.485D-05 for orbital    449a         
 mo-orthogonalization: Cholesky decomposition
          Delta Eig. =     0.0003362407 eV 
 
                                              current damping :  0.450
 ITERATION  ENERGY          1e-ENERGY        2e-ENERGY     RMS[dD(SAO)]   TOL
  16  -8532.4672532462    -83689.449803     39082.734682    0.189D-06 0.103D-12
          Norm of current diis error: 0.35164E-03
          max. resid. norm for Fia-block=  1.935D-05 for orbital    449a         
          max. resid. fock norm         =  3.507D-05 for orbital   7601a         
          Delta Eig. =     0.0002613433 eV 
 
                                              current damping :  0.500
 ITERATION  ENERGY          1e-ENERGY        2e-ENERGY     RMS[dD(SAO)]   TOL
  17  -8532.4672532440    -83689.449213     39082.734092    0.177D-06 0.985D-13
          Norm of current diis error: 0.19569E-03
          max. resid. norm for Fia-block=  9.267D-06 for orbital    449a         
          max. resid. fock norm         =  3.797D-05 for orbital   4297a         
          Delta Eig. =     0.0001122247 eV 
 
                                              current damping :  0.550
 ITERATION  ENERGY          1e-ENERGY        2e-ENERGY     RMS[dD(SAO)]   TOL
  18  -8532.4672532445    -83689.449328     39082.734207    0.180D-06 0.968D-13
          Norm of current diis error: 0.12113E-03
          max. resid. norm for Fia-block=  5.448D-06 for orbital    449a         
          max. resid. fock norm         =  4.972D-05 for orbital   7601a         
          Delta Eig. =     0.0001170191 eV 
 
                                              current damping :  0.600
 ITERATION  ENERGY          1e-ENERGY        2e-ENERGY     RMS[dD(SAO)]   TOL
  19  -8532.4672532354    -83689.449225     39082.734104    0.181D-06 0.968D-13
          Norm of current diis error: 0.69336E-04
          max. resid. norm for Fia-block=  3.136D-06 for orbital    444a         
          max. resid. fock norm         =  4.572D-05 for orbital   4240a         
          Delta Eig. =     0.0000821403 eV 
 
                                              current damping :  0.650
 ITERATION  ENERGY          1e-ENERGY        2e-ENERGY     RMS[dD(SAO)]   TOL
  20  -8532.4672532328    -83689.449322     39082.734201    0.176D-06 0.972D-13
          Norm of current diis error: 0.44286E-04
          max. resid. norm for Fia-block=  1.755D-06 for orbital    444a         
          max. resid. fock norm         =  5.239D-05 for orbital   1861a         
 mo-orthogonalization: Cholesky decomposition
          Delta Eig. =     0.0000589568 eV 
 
                                              current damping :  0.700
 ITERATION  ENERGY          1e-ENERGY        2e-ENERGY     RMS[dD(SAO)]   TOL
  21  -8532.4672532195    -83689.449196     39082.734075    0.218D-06 0.965D-13
          Norm of current diis error: 0.29969E-04
          max. resid. norm for Fia-block=  1.208D-06 for orbital    444a         
          max. resid. fock norm         =  5.239D-05 for orbital   1861a         
          Delta Eig. =     0.0000618365 eV 

 ENERGY & DENSITY CONVERGED !

 
                                              current damping :  0.750
 ITERATION  ENERGY          1e-ENERGY        2e-ENERGY     RMS[dD(SAO)]   TOL
  22  -8532.4672532735    -83689.449214     39082.734093    0.202D-06 0.339D-12
          max. resid. norm for Fia-block=  8.851D-07 for orbital    233a         
          max. resid. fock norm         =  1.668D-04 for orbital   1802a         

 convergence criteria satisfied after    22 iterations


                  ------------------------------------------ 
                 |  total energy      =  -8532.46725327350  |
                  ------------------------------------------ 
                 :  kinetic energy    =   8526.34860900467  :
                 :  potential energy  = -17058.81586227816  :
                 :  virial theorem    =      1.99928289859  :
                 :  wavefunction norm =      1.00000000000  :
                  .......................................... 


 <geterg> : there is no data group $energy 


 <skperg> : $end is missing 


 orbitals $scfmo  will be written to file mos

    irrep                446a        447a        448a        449a        450a   
 eigenvalues H         -0.28631    -0.28229    -0.27109    -0.26981    -0.26652
            eV          -7.7910     -7.6815     -7.3768     -7.3420     -7.2525
 occupation              2.0000      2.0000      2.0000      2.0000      2.0000 

    irrep                451a        452a        453a        454a        455a   
 eigenvalues H         -0.02979    -0.02934    -0.02733    -0.00437     0.00966
            eV          -0.8107     -0.7983     -0.7438     -0.1188      0.2630
 
 
 
 
 ==============================================================================
                           electrostatic moments
 ==============================================================================

 reference point for electrostatic moments:    0.00000   0.00000   0.00000

 
              nuc           elec       ->  total
 ------------------------------------------------------------------------------
                          charge      
 ------------------------------------------------------------------------------
         900.000000    -900.000000       0.000000
 
 ------------------------------------------------------------------------------
                       dipole moment  
 ------------------------------------------------------------------------------
   x      96.519079     -96.954120      -0.435041
   y      27.281060     -27.414687      -0.133627
   z    -633.841097     636.492125       2.651028
 
   | dipole moment | =     2.6898 a.u. =     6.8368 debye 
 
 ------------------------------------------------------------------------------
                     quadrupole moment
 ------------------------------------------------------------------------------
  xx   28597.945444  -29190.867177    -592.921733
  yy   28781.015926  -29372.888038    -591.872112
  zz   35571.722468  -36212.448483    -640.726016
  xy      17.642492     -17.794760      -0.152267
  xz     433.418882    -427.031970       6.386912
  yz     -56.406838      58.667574       2.260737
 
     1/3  trace=    -608.506620
     anisotropy=      49.742415
 
 ==============================================================================
 


    ------------------------------------------------------------------------
         total  cpu-time :  98 days  1 hours  5 minutes and 26 seconds
         total wall-time :   3 days 13 hours 23 minutes and 32 seconds
    ------------------------------------------------------------------------

   ****  dscf : all done  ****


    2018-03-08 23:00:27.345 

