STARTING dscf ON 64 PROCESSORS!
RUNNING PROGRAM /sopt/TURBOMOLE/7.2.1-official/bin/em64t-unknown-linux-gnu_mpi/dscf_mpi.
PLEASE WAIT UNTIL dscf HAS FINISHED.
Look for the output in slave1.output.
MACHINEFILE is ./hostlist
 this is node-proc. number 1 running on node c-17-4.gp.local
 the total number of node-proc. spawned is  65
  parallel platform: MPP or cluster with fast interconnect

 dscf (c-17-4.gp.local) : TURBOMOLE V7.2 ( 21471 ) 7 Nov 2017 at 16:15:16
 Copyright (C) 2017 TURBOMOLE GmbH, Karlsruhe


    2018-02-18 21:03:47.280 


 SCF run will be profiled !



                             d s c f - program

                   idea & directorship : reinhart ahlrichs
                   program development : marco haeser
                                         michael baer
                           dft version : oliver treutler
           parallelized version : malte v. arnim, gina corongiu, GMD 


                          quantum chemistry group
                          universitaet  karlsruhe
                                  germany




                          References             
                                                 
          TURBOMOLE:                             
              R. Ahlrichs, M. Baer, M. Haeser, H. Horn, and
              C. Koelmel
              Electronic structure calculations on workstation
              computers: the program system TURBOMOLE
              Chem. Phys. Lett. 162: 165 (1989)
          Density Functional:                              
              O. Treutler and R. Ahlrichs                      
              Efficient Molecular Numerical Integration Schemes
              J. Chem. Phys. 102: 346 (1995)                   
          Parallel Version:                                
              Performance of parallel TURBOMOLE for Density    
              Functional Calculations                          
              M. v. Arnim and R. Ahlrichs                      
              J. Comp. Chem. 19: 1746 (1998)                   
                                         




              +--------------------------------------------------+
              | Atomic coordinate, charge and isotop information |
              +--------------------------------------------------+

                    atomic coordinates            atom    charge  isotop
        -16.31484952    2.67024225    0.00000000    c      6.000     0
        -16.43244625    1.30781953   -2.29318074    c      6.000     0
        -16.43244625   -1.30781953   -2.29318074    c      6.000     0
        -16.31484952   -2.67024225    0.00000000    c      6.000     0
        -16.43244625   -1.30781953    2.29318074    c      6.000     0
        -16.43244625    1.30781953    2.29318074    c      6.000     0
        -15.77877381    5.28767125    0.00000000    c      6.000     0
        -14.89622616    7.41832976    0.00000000    c      6.000     0
        -15.77877381   -5.28767125    0.00000000    c      6.000     0
        -14.89622616   -7.41832976    0.00000000    c      6.000     0
        -13.42448713   -9.64819432    0.00000000    c      6.000     0
        -12.54426223  -10.69472612   -2.29318074    c      6.000     0
        -10.69472612  -12.54426223   -2.29318074    c      6.000     0
         -9.64819432  -13.42448713    0.00000000    c      6.000     0
        -10.69472612  -12.54426223    2.29318074    c      6.000     0
        -12.54426223  -10.69472612    2.29318074    c      6.000     0
        -13.42448713    9.64819432    0.00000000    c      6.000     0
        -12.54426223   10.69472612   -2.29318074    c      6.000     0
        -10.69472612   12.54426223   -2.29318074    c      6.000     0
         -9.64819432   13.42448713    0.00000000    c      6.000     0
        -10.69472612   12.54426223    2.29318074    c      6.000     0
        -12.54426223   10.69472612    2.29318074    c      6.000     0
         -7.41832976  -14.89622616    0.00000000    c      6.000     0
         -5.28767125  -15.77877381    0.00000000    c      6.000     0
         -2.67024225  -16.31484952    0.00000000    c      6.000     0
         -1.30781953  -16.43244625   -2.29318074    c      6.000     0
          1.30781953  -16.43244625   -2.29318074    c      6.000     0
          2.67024225  -16.31484952    0.00000000    c      6.000     0
          1.30781953  -16.43244625    2.29318074    c      6.000     0
         -1.30781953  -16.43244625    2.29318074    c      6.000     0
         13.42448713   -9.64819432    0.00000000    c      6.000     0
         12.54426223  -10.69472612    2.29318074    c      6.000     0
         10.69472612  -12.54426223    2.29318074    c      6.000     0
          9.64819432  -13.42448713    0.00000000    c      6.000     0
         10.69472612  -12.54426223   -2.29318074    c      6.000     0
         12.54426223  -10.69472612   -2.29318074    c      6.000     0
          7.41832976  -14.89622616    0.00000000    c      6.000     0
          5.28767125  -15.77877381    0.00000000    c      6.000     0
         16.43244625    1.30781953   -2.29318074    c      6.000     0
         16.43244625   -1.30781953   -2.29318074    c      6.000     0
         16.31484952   -2.67024225    0.00000000    c      6.000     0
         16.43244625   -1.30781953    2.29318074    c      6.000     0
         16.43244625    1.30781953    2.29318074    c      6.000     0
         14.89622616   -7.41832976    0.00000000    c      6.000     0
         15.77877381   -5.28767125    0.00000000    c      6.000     0
         16.31484952    2.67024225    0.00000000    c      6.000     0
         -7.41832976   14.89622616    0.00000000    c      6.000     0
         -5.28767125   15.77877381    0.00000000    c      6.000     0
         -2.67024225   16.31484952    0.00000000    c      6.000     0
         -1.30781953   16.43244625    2.29318074    c      6.000     0
          1.30781953   16.43244625    2.29318074    c      6.000     0
          2.67024225   16.31484952    0.00000000    c      6.000     0
          1.30781953   16.43244625   -2.29318074    c      6.000     0
         -1.30781953   16.43244625   -2.29318074    c      6.000     0
          5.28767125   15.77877381    0.00000000    c      6.000     0
          7.41832976   14.89622616    0.00000000    c      6.000     0
          9.64819432   13.42448713    0.00000000    c      6.000     0
         10.69472612   12.54426223    2.29318074    c      6.000     0
         12.54426223   10.69472612    2.29318074    c      6.000     0
         13.42448713    9.64819432    0.00000000    c      6.000     0
         12.54426223   10.69472612   -2.29318074    c      6.000     0
         10.69472612   12.54426223   -2.29318074    c      6.000     0
         14.89622616    7.41832976    0.00000000    c      6.000     0
         15.77877381    5.28767125    0.00000000    c      6.000     0
        -16.40655167    2.33807013   -4.06626206    h      1.000     0
        -16.40655167   -2.33807013   -4.06626206    h      1.000     0
        -16.40655167   -2.33807013    4.06626206    h      1.000     0
        -16.40655167    2.33807013    4.06626206    h      1.000     0
        -13.25444918   -9.94791870   -4.06626206    h      1.000     0
         -9.94791870  -13.25444918   -4.06626206    h      1.000     0
         -9.94791870  -13.25444918    4.06626206    h      1.000     0
        -13.25444918   -9.94791870    4.06626206    h      1.000     0
        -13.25444918    9.94791870   -4.06626206    h      1.000     0
         -9.94791870   13.25444918   -4.06626206    h      1.000     0
         -9.94791870   13.25444918    4.06626206    h      1.000     0
        -13.25444918    9.94791870    4.06626206    h      1.000     0
         -2.33807013  -16.40655167   -4.06626206    h      1.000     0
          2.33807013  -16.40655167   -4.06626206    h      1.000     0
          2.33807013  -16.40655167    4.06626206    h      1.000     0
         -2.33807013  -16.40655167    4.06626206    h      1.000     0
         13.25444918   -9.94791870    4.06626206    h      1.000     0
          9.94791870  -13.25444918    4.06626206    h      1.000     0
          9.94791870  -13.25444918   -4.06626206    h      1.000     0
         13.25444918   -9.94791870   -4.06626206    h      1.000     0
         16.40655167    2.33807013   -4.06626206    h      1.000     0
         16.40655167   -2.33807013   -4.06626206    h      1.000     0
         16.40655167   -2.33807013    4.06626206    h      1.000     0
         16.40655167    2.33807013    4.06626206    h      1.000     0
         -2.33807013   16.40655167    4.06626206    h      1.000     0
          2.33807013   16.40655167    4.06626206    h      1.000     0
          2.33807013   16.40655167   -4.06626206    h      1.000     0
         -2.33807013   16.40655167   -4.06626206    h      1.000     0
          9.94791870   13.25444918    4.06626206    h      1.000     0
         13.25444918    9.94791870    4.06626206    h      1.000     0
         13.25444918    9.94791870   -4.06626206    h      1.000     0
          9.94791870   13.25444918   -4.06626206    h      1.000     0
 
       center of nuclear mass  :    0.00000000    0.00000000    0.00000000
       center of nuclear charge:    0.00000000   -0.00000000    0.00000000

              +--------------------------------------------------+
              |               basis set information              |
              +--------------------------------------------------+

              we will work with the 1s 3p 5d 7f 9g ... basis set
              ...i.e. with spherical basis functions...

   type   atoms  prim   cont   basis
   ---------------------------------------------------------------------------
    c       64     50     30   cc-pVTZ   [4s3p2d1f|18s5p2d1f]
    h       32     16     14   cc-pVTZ   [3s2p1d|5s2p1d]
   ---------------------------------------------------------------------------
   total:   96   3712   2368
   ---------------------------------------------------------------------------

   total number of primitive shells          :   34
   total number of contracted shells         :  832
   total number of cartesian basis functions : 2720
   total number of SCF-basis functions       : 2368


 integral neglect threshold       :  0.12E-13
 integral storage threshold THIZE :  0.10E-04
 integral storage threshold THIME :         5


 DENSITY CONVERGENCE CHECK SWITCHED ON !
 SCF CONVERGENCE IF RMS(delta[D]) <     0.1000000000E-06


 symmetry group of the molecule :   c1 

 the group has the following generators :
   c1(z)

    1 symmetry operations found

 there are 1 real representations :   a   

 maximum number of shells which are related by symmetry :  1


    mo occupation :
   irrep   mo's   occupied
    a     2368      208
 
 number of basis functions   :                   2368
 number of occupied orbitals :                    208
 

 automatic virtual orbital shift switched on 
      shift if e(lumo)-e(homo) < 0.10000000    


 keyword $2e-ints_shell_statistics missing in file <control>

 ! One task per shell generated
  No pre-computed optimal task distribution found
  ... using automatic task generation

          ------------------------
          nuclear repulsion energy  :   6194.81766106    
          ------------------------


         -----------------
         -S,T+V- integrals
         -----------------

 1e-integrals will be neglected if expon. factor < 0.122866E-14
 
   Difference densities algorithm switched on.
   The maximal number of linear combinations of
   difference densities is                    20 .

 DIIS switched on: error vector is FDS-SDF
 Max. Iterations for DIIS is     :   5
 DIIS matrix (see manual) 
    Scaling factor of diagonals  :  1.200
    threshold for scaling factor :  0.000

 scf convergence criterion : increment of total energy < .1000000D-08
                  and increment of one-electron energy < .1000000D-05

  MOs are in ASCII format !


 reading orbital data $scfmo  from file mos
 orbital characterization : scfconv=9

 DSCF restart information will be dumped onto file mos

 
                                              current damping :  0.300
 ITERATION  ENERGY          1e-ENERGY        2e-ENERGY     RMS[dD(SAO)]   TOL
   1  -2442.5353514718    -15634.188432     6996.8354193    0.000D+00 0.123D-13
          max. resid. norm for Fia-block=  2.844D-04 for orbital    208a         
          max. resid. fock norm         =  2.662D-03 for orbital   2361a         
          Delta Eig. =     0.1246164833 eV 
 
                                              current damping :  0.250
 ITERATION  ENERGY          1e-ENERGY        2e-ENERGY     RMS[dD(SAO)]   TOL
   2  -2442.5353538043    -15634.198950     6996.8459354    0.926D-05 0.777D-14
          Norm of current diis error: 0.20475E-02
          max. resid. norm for Fia-block=  8.229D-05 for orbital    193a         
          max. resid. fock norm         =  6.086D-04 for orbital   2361a         
          Delta Eig. =     0.0292879047 eV 
 
                                              current damping :  0.200
 ITERATION  ENERGY          1e-ENERGY        2e-ENERGY     RMS[dD(SAO)]   TOL
   3  -2442.5353540161    -15634.196433     6996.8434184    0.314D-05 0.613D-14
          Norm of current diis error: 0.53994E-03
          max. resid. norm for Fia-block=  2.035D-05 for orbital    193a         
          max. resid. fock norm         =  1.207D-04 for orbital   2368a         
          Delta Eig. =     0.0063012388 eV 
 
                                              current damping :  0.250
 ITERATION  ENERGY          1e-ENERGY        2e-ENERGY     RMS[dD(SAO)]   TOL
   4  -2442.5353540305    -15634.197267     6996.8442519    0.776D-06 0.557D-14
          Norm of current diis error: 0.11329E-03
          max. resid. norm for Fia-block=  3.801D-06 for orbital    189a         
          max. resid. fock norm         =  2.027D-05 for orbital   2368a         
          Delta Eig. =     0.0009795272 eV 
 
                                              current damping :  0.300
 ITERATION  ENERGY          1e-ENERGY        2e-ENERGY     RMS[dD(SAO)]   TOL
   5  -2442.5353540311    -15634.197131     6996.8441163    0.142D-06 0.524D-14
          Norm of current diis error: 0.34996E-04
          max. resid. norm for Fia-block=  1.153D-06 for orbital    206a         
          max. resid. fock norm         =  4.087D-06 for orbital   2368a         
 mo-orthogonalization: Cholesky decomposition
          Delta Eig. =     0.0001951874 eV 

 DENSITY CONVERGED !

 
                                              current damping :  0.350
 ITERATION  ENERGY          1e-ENERGY        2e-ENERGY     RMS[dD(SAO)]   TOL
   6  -2442.5353540316    -15634.197173     6996.8441577    0.320D-07 0.494D-14
          Norm of current diis error: 0.13102E-04
          max. resid. norm for Fia-block=  4.958D-07 for orbital    189a         
          max. resid. fock norm         =  9.357D-07 for orbital   2368a         
          Delta Eig. =     0.0000415449 eV 

 DENSITY CONVERGED !

 
                                              current damping :  0.400
 ITERATION  ENERGY          1e-ENERGY        2e-ENERGY     RMS[dD(SAO)]   TOL
   7  -2442.5353540313    -15634.197167     6996.8441515    0.934D-08 0.466D-14
          Norm of current diis error: 0.50992E-05
          max. resid. norm for Fia-block=  2.436D-07 for orbital    189a         
          max. resid. fock norm         =  2.498D-07 for orbital   2368a         
          Delta Eig. =     0.0000107287 eV 

 ENERGY & DENSITY CONVERGED !

 
                                              current damping :  0.450
 ITERATION  ENERGY          1e-ENERGY        2e-ENERGY     RMS[dD(SAO)]   TOL
   8  -2442.5353540313    -15634.197169     6996.8441543    0.388D-08 0.440D-14
          max. resid. norm for Fia-block=  7.644D-08 for orbital    189a         
          max. resid. fock norm         =  7.789D-08 for orbital    189a         

 convergence criteria satisfied after     8 iterations


                  ------------------------------------------ 
                 |  total energy      =  -2442.53535403129  |
                  ------------------------------------------ 
                 :  kinetic energy    =   2438.34291586732  :
                 :  potential energy  =  -4880.87826989861  :
                 :  virial theorem    =      1.99828357114  :
                 :  wavefunction norm =      1.00000000000  :
                  .......................................... 


 orbitals $scfmo  will be written to file mos

    irrep                204a        205a        206a        207a        208a   
 eigenvalues H         -0.30727    -0.30727    -0.27053    -0.27053    -0.25417
            eV          -8.3614     -8.3614     -7.3616     -7.3616     -6.9163
 occupation              2.0000      2.0000      2.0000      2.0000      2.0000 

    irrep                209a        210a        211a        212a        213a   
 eigenvalues H          0.01474     0.03224     0.03224     0.07173     0.07173
            eV           0.4010      0.8772      0.8772      1.9519      1.9519
 
 
 
 
 ==============================================================================
                           electrostatic moments
 ==============================================================================

 reference point for electrostatic moments:    0.00000   0.00000   0.00000

 
              nuc           elec       ->  total
 ------------------------------------------------------------------------------
                          charge      
 ------------------------------------------------------------------------------
         416.000000    -416.000000      -0.000000
 
 ------------------------------------------------------------------------------
                       dipole moment  
 ------------------------------------------------------------------------------
   x       0.000000      -0.000000      -0.000000
   y       0.000000       0.000000       0.000000
   z       0.000000       0.000000       0.000000
 
   | dipole moment | =     0.0000 a.u. =     0.0000 debye 
 
 ------------------------------------------------------------------------------
                     quadrupole moment
 ------------------------------------------------------------------------------
  xx   56892.106180  -57189.098136    -296.991956
  yy   56892.106180  -57189.098136    -296.991956
  zz    1538.769748   -1775.541001    -236.771253
  xy       0.000000       0.000000       0.000000
  xz       0.000000       0.000000       0.000000
  yz       0.000000       0.000000       0.000000
 
     1/3  trace=    -276.918388
     anisotropy=      60.220703
 
 ==============================================================================
 

    dscf profiling
  --------------------------------------------------------------------
             module   cpu total (s)       %  wall total (s)       %

          dscf.total           890.9  100.00           691.8  100.00
        dscf.prepare            12.6    1.41            12.6    1.82
      prepare.oneint             0.1    0.02             0.1    0.02
     prepare.moinput             4.6    0.51             4.6    0.66
     moinput_orthmos             7.7    0.86             7.7    1.11
            dscf.scf           877.2   98.46           678.1   98.01
             scf.pre             0.0    0.00             0.0    0.00
        scf.makedmat             4.4    0.49             4.4    0.64
          scf.shloop           488.0   54.77           488.0   70.54
          shloop_omp           487.4   54.71           487.4   70.46
          scf.symcar             0.6    0.06             0.6    0.08
        scf.makefock             0.9    0.10             1.0    0.15
          scf.newerg             0.1    0.01             0.1    0.01
          scf.newcnv            57.8    6.48             7.3    1.06
           scf.fdiag           147.0   16.50            18.9    2.74
         diag_tritrn            45.6    5.12             5.7    0.83
          diag_rdiag            97.5   10.94            12.7    1.84
          scf.modump           144.7   16.24           133.7   19.32
           ortho_all            11.5    1.29             4.4    0.64
            scf.post            21.3    2.40            19.5    2.81
        dscf.postscf             1.1    0.13             1.1    0.17
 


    ------------------------------------------------------------------------
         total  cpu-time : 14 minutes and 51 seconds
         total wall-time : 11 minutes and 32 seconds
    ------------------------------------------------------------------------

   ****  dscf : all done  ****


    2018-02-18 21:15:19.133 

