
   OpenMP run-time library returned nthreads =  8
 operating system is UNIX !

 dscf (c-13-221) : TURBOMOLE V7.3 ( 22142 ) 4 Jul 2018 at 18:12:42
 Copyright (C) 2018 TURBOMOLE GmbH, Karlsruhe


    2019-04-02 13:45:01.387 



                             d s c f - program

                   idea & directorship : reinhart ahlrichs
                   program development : marco haeser
                                         michael baer
                           dft version : oliver treutler


                          quantum chemistry group
                          universitaet  karlsruhe
                                  germany




                          References             
                                                 
          TURBOMOLE:                             
              R. Ahlrichs, M. Baer, M. Haeser, H. Horn, and
              C. Koelmel
              Electronic structure calculations on workstation
              computers: the program system TURBOMOLE
              Chem. Phys. Lett. 162: 165 (1989)
          Density Functional:                              
              O. Treutler and R. Ahlrichs                      
              Efficient Molecular Numerical Integration Schemes
              J. Chem. Phys. 102: 346 (1995)                   
          Parallel Version:                                
              Performance of parallel TURBOMOLE for Density    
              Functional Calculations                          
              M. v. Arnim and R. Ahlrichs                      
              J. Comp. Chem. 19: 1746 (1998)                   
                                         




              +--------------------------------------------------+
              | Atomic coordinate, charge and isotop information |
              +--------------------------------------------------+

                    atomic coordinates            atom    charge  isotop
         -0.39477282   -1.82279699    1.01055191    n      7.000     0
         -0.42358398   -3.72863639    1.14344278    h      1.000     0
         -2.73319042   -0.65116395    0.57950072    c      6.000     0
         -4.65106342   -1.91011932    0.37396161    o      8.000     0
         -2.56583650    2.08471864    0.43112927    c      6.000     0
         -4.26430335    3.15155431    0.09419777    h      1.000     0
         -0.30803140    3.23122868    0.72022437    c      6.000     0
         -0.08747630    5.25806075    0.62993961    h      1.000     0
          1.86223458    1.89128350    1.15501264    n      7.000     0
          3.52917652    2.77209175    1.40743836    h      1.000     0
          1.94078826   -0.71652766    1.34670810    c      6.000     0
          3.87242055   -1.88480430    1.77116431    o      8.000     0
 
       center of nuclear mass  :   -0.33184226   -0.04301655    0.93603855
       center of nuclear charge:   -0.33104686    0.02176933    0.93207504

              +--------------------------------------------------+
              |               basis set information              |
              +--------------------------------------------------+

              we will work with the 1s 3p 5d 7f 9g ... basis set
              ...i.e. with spherical basis functions...

   type   atoms  prim   cont   basis
   ---------------------------------------------------------------------------
    n        2     77     57   def2-QZVP   [7s4p3d2f1g|15s8p3d2f1g]
    h        4     33     30   def2-QZVP   [4s3p2d1f|7s3p2d1f]
    c        4     77     57   def2-QZVP   [7s4p3d2f1g|15s8p3d2f1g]
    o        2     77     57   def2-QZVP   [7s4p3d2f1g|15s8p3d2f1g]
   ---------------------------------------------------------------------------
   total:   12    748    576
   ---------------------------------------------------------------------------

   total number of primitive shells          :  100
   total number of contracted shells         :  176
   total number of cartesian basis functions :  716
   total number of SCF-basis functions       :  576


 integral neglect threshold       :  0.47E-13
 integral storage threshold THIZE :  0.10E-04
 integral storage threshold THIME :         5


 DENSITY CONVERGENCE CHECK SWITCHED ON !
 SCF CONVERGENCE IF RMS(delta[D]) <     0.1000000000E-06


 symmetry group of the molecule :   c1 

 the group has the following generators :
   c1(z)

    1 symmetry operations found

 there are 1 real representations :   a   

 maximum number of shells which are related by symmetry :  1


    mo occupation :
   irrep   mo's   occupied
    a      576       29
 
 number of basis functions   :                    576
 number of occupied orbitals :                     29
 

 automatic virtual orbital shift switched on 
      shift if e(lumo)-e(homo) < 0.10000000    


          ------------------------
          nuclear repulsion energy  :   357.066176303    
          ------------------------


         -----------------
         -S,T+V- integrals
         -----------------

 1e-integrals will be neglected if expon. factor < 0.466754E-14
 
   Difference densities algorithm switched on.
   The maximal number of linear combinations of
   difference densities is                    20 .

 DIIS switched on: error vector is FDS-SDF
 Max. Iterations for DIIS is     :   5
 DIIS matrix (see manual) 
    Scaling factor of diagonals  :  1.200
    threshold for scaling factor :  0.000

 scf convergence criterion : increment of total energy < .1000000D-08
                  and increment of one-electron energy < .1000000D-05

  MOs are in ASCII format !


 reading orbital data $scfmo  from file mos
 orbital characterization : scfconv=9

 DSCF restart information will be dumped onto file mos

 
                                              current damping :  0.700
 ITERATION  ENERGY          1e-ENERGY        2e-ENERGY     RMS[dD(SAO)]   TOL
   1  -412.55197229316    -1271.7267187     502.10857012    0.000D+00 0.466D-13
          max. resid. norm for Fia-block=  2.612D-01 for orbital      2a         
          max. resid. fock norm         =  8.014D-01 for orbital    576a         
          Delta Eig. =    62.2310991300 eV 
 
                                              current damping :  0.650
 ITERATION  ENERGY          1e-ENERGY        2e-ENERGY     RMS[dD(SAO)]   TOL
   2  -412.63206064874    -1270.5420225     500.84378550    0.101D-02 0.306D-13
          Norm of current diis error: 0.85381    
          max. resid. norm for Fia-block=  1.128D-01 for orbital      2a         
          max. resid. fock norm         =  3.304D-01 for orbital    576a         
          Delta Eig. =    26.8596883089 eV 
 
                                              current damping :  0.600
 ITERATION  ENERGY          1e-ENERGY        2e-ENERGY     RMS[dD(SAO)]   TOL
   3  -412.64851586257    -1270.7059296     500.99123746    0.446D-03 0.231D-13
          Norm of current diis error: 0.38571    
          max. resid. norm for Fia-block=  4.772D-02 for orbital      2a         
          max. resid. fock norm         =  1.279D-01 for orbital    575a         
          Delta Eig. =    10.0639208940 eV 
 
                                              current damping :  0.650
 ITERATION  ENERGY          1e-ENERGY        2e-ENERGY     RMS[dD(SAO)]   TOL
   4  -412.65264883813    -1270.6396551     500.92082992    0.239D-03 0.203D-13
          Norm of current diis error: 0.16017    
          max. resid. norm for Fia-block=  1.740D-02 for orbital      1a         
          max. resid. fock norm         =  4.958D-02 for orbital    576a         
          Delta Eig. =     4.1126506925 eV 
 
                                              current damping :  0.500
 ITERATION  ENERGY          1e-ENERGY        2e-ENERGY     RMS[dD(SAO)]   TOL
   5  -412.65345795503    -1270.6217486     500.90211431    0.859D-04 0.188D-13
          Norm of current diis error: 0.72157E-01
          max. resid. norm for Fia-block=  6.979D-03 for orbital      2a         
          max. resid. fock norm         =  1.922D-02 for orbital    575a         
 mo-orthogonalization: Cholesky decomposition
          Delta Eig. =     1.6797511007 eV 
 
                                              current damping :  0.350
 ITERATION  ENERGY          1e-ENERGY        2e-ENERGY     RMS[dD(SAO)]   TOL
   6  -412.65366870881    -1270.6151276     500.89528255    0.464D-04 0.175D-13
          Norm of current diis error: 0.30973E-01
          max. resid. norm for Fia-block=  2.291D-03 for orbital      1a         
          max. resid. fock norm         =  6.437D-03 for orbital    576a         
          Delta Eig. =     0.6332175836 eV 
 
                                              current damping :  0.200
 ITERATION  ENERGY          1e-ENERGY        2e-ENERGY     RMS[dD(SAO)]   TOL
   7  -412.65372058441    -1270.6136799     500.89378299    0.215D-04 0.162D-13
          Norm of current diis error: 0.12607E-01
          max. resid. norm for Fia-block=  1.022D-03 for orbital     20a         
          max. resid. fock norm         =  1.657D-03 for orbital    575a         
          Delta Eig. =     0.1820917090 eV 
 
                                              current damping :  0.050
 ITERATION  ENERGY          1e-ENERGY        2e-ENERGY     RMS[dD(SAO)]   TOL
   8  -412.65373194869    -1270.6130686     500.89316038    0.950D-05 0.151D-13
          Norm of current diis error: 0.46293E-02
          max. resid. norm for Fia-block=  4.048D-04 for orbital     20a         
          max. resid. fock norm         =  4.550D-04 for orbital     31a         
          Delta Eig. =     0.0383512604 eV 
 
                                              current damping :  0.100
 ITERATION  ENERGY          1e-ENERGY        2e-ENERGY     RMS[dD(SAO)]   TOL
   9  -412.65373384968    -1270.6134739     500.89356380    0.376D-05 0.141D-13
          Norm of current diis error: 0.14191E-02
          max. resid. norm for Fia-block=  1.156D-04 for orbital     29a         
          max. resid. fock norm         =  1.293D-04 for orbital     35a         
          Delta Eig. =     0.0062029172 eV 
 
                                              current damping :  0.150
 ITERATION  ENERGY          1e-ENERGY        2e-ENERGY     RMS[dD(SAO)]   TOL
  10  -412.65373399900    -1270.6132747     500.89336440    0.102D-05 0.136D-13
          Norm of current diis error: 0.54950E-03
          max. resid. norm for Fia-block=  5.052D-05 for orbital     28a         
          max. resid. fock norm         =  6.219D-05 for orbital     28a         
 mo-orthogonalization: Cholesky decomposition
          Delta Eig. =     0.0033271065 eV 
 
                                              current damping :  0.200
 ITERATION  ENERGY          1e-ENERGY        2e-ENERGY     RMS[dD(SAO)]   TOL
  11  -412.65373401651    -1270.6134797     500.89356940    0.293D-06 0.133D-13
          Norm of current diis error: 0.27134E-03
          max. resid. norm for Fia-block=  1.628D-05 for orbital     27a         
          max. resid. fock norm         =  2.072D-05 for orbital     27a         
          Delta Eig. =     0.0009538546 eV 
 
                                              current damping :  0.250
 ITERATION  ENERGY          1e-ENERGY        2e-ENERGY     RMS[dD(SAO)]   TOL
  12  -412.65373402029    -1270.6134579     500.89354757    0.143D-06 0.131D-13
          Norm of current diis error: 0.90274E-04
          max. resid. norm for Fia-block=  9.071D-06 for orbital     28a         
          max. resid. fock norm         =  9.128D-06 for orbital     28a         
          Delta Eig. =     0.0001405001 eV 

 DENSITY CONVERGED !

 
                                              current damping :  0.300
 ITERATION  ENERGY          1e-ENERGY        2e-ENERGY     RMS[dD(SAO)]   TOL
  13  -412.65373402100    -1270.6134630     500.89355269    0.669D-07 0.133D-13
          Norm of current diis error: 0.43283E-04
          max. resid. norm for Fia-block=  5.029D-06 for orbital     28a         
          max. resid. fock norm         =  5.061D-06 for orbital     28a         
          Delta Eig. =     0.0000694977 eV 

 DENSITY CONVERGED !

 
                                              current damping :  0.150
 ITERATION  ENERGY          1e-ENERGY        2e-ENERGY     RMS[dD(SAO)]   TOL
  14  -412.65373402119    -1270.6134680     500.89355764    0.377D-07 0.133D-13
          Norm of current diis error: 0.19761E-04
          max. resid. norm for Fia-block=  2.511D-06 for orbital     28a         
          max. resid. fock norm         =  2.526D-06 for orbital     28a         
          Delta Eig. =     0.0000442448 eV 

 ENERGY & DENSITY CONVERGED !

 
                                              current damping :  0.050
 ITERATION  ENERGY          1e-ENERGY        2e-ENERGY     RMS[dD(SAO)]   TOL
  15  -412.65373402123    -1270.6134698     500.89355952    0.232D-07 0.133D-13
          max. resid. norm for Fia-block=  4.339D-07 for orbital     24a         
          max. resid. fock norm         =  4.810D-07 for orbital     21a         

 convergence criteria satisfied after    15 iterations


                  ------------------------------------------ 
                 |  total energy      =   -412.65373402123  |
                  ------------------------------------------ 
                 :  kinetic energy    =    412.06017486323  :
                 :  potential energy  =   -824.71390888447  :
                 :  virial theorem    =      1.99856160478  :
                 :  wavefunction norm =      1.00000000000  :
                  .......................................... 


 orbitals $scfmo  will be written to file mos

    irrep                 25a         26a         27a         28a         29a   
 eigenvalues H         -0.52677    -0.48451    -0.45011    -0.43774    -0.36977
            eV         -14.3342    -13.1843    -12.2482    -11.9116    -10.0621
 occupation              2.0000      2.0000      2.0000      2.0000      2.0000 

    irrep                 30a         31a         32a         33a         34a   
 eigenvalues H          0.07354     0.08226     0.11715     0.11971     0.14819
            eV           2.0011      2.2385      3.1879      3.2574      4.0324
 
 
 
 
 ==============================================================================
                           electrostatic moments
 ==============================================================================

 reference point for electrostatic moments:    0.00000   0.00000   0.00000

 
              nuc           elec       ->  total
 ------------------------------------------------------------------------------
                          charge      
 ------------------------------------------------------------------------------
          58.000000     -58.000000      -0.000000
 
 ------------------------------------------------------------------------------
                       dipole moment  
 ------------------------------------------------------------------------------
   x     -19.200718      19.741076       0.540358
   y       1.262621       0.640911       1.903532
   z      54.060353     -54.104047      -0.043695
 
   | dipole moment | =     1.9792 a.u. =     5.0307 debye 
 
 ------------------------------------------------------------------------------
                     quadrupole moment
 ------------------------------------------------------------------------------
  xx     456.709378    -501.403642     -44.694264
  yy     259.417760    -287.648901     -28.231141
  zz      63.520126     -98.502663     -34.982538
  xy       4.105889      -2.952099       1.153790
  xz      55.455098     -56.611687      -1.156589
  yz     -15.474566      17.217797       1.743231
 
     1/3  trace=     -35.969314
     anisotropy=      14.919453
 
 ==============================================================================
 


    ------------------------------------------------------------------------
         total  cpu-time :  1 hours 31 minutes and 55 seconds
         total wall-time : 11 minutes and 39 seconds
    ------------------------------------------------------------------------

   ****  dscf : all done  ****


    2019-04-02 13:56:40.134 

