
   OpenMP run-time library returned nthreads = 28

 ricc2 (c-19-414) : TURBOMOLE V7.3 ( 22142 ) 4 Jul 2018 at 18:12:42
 Copyright (C) 2018 TURBOMOLE GmbH, Karlsruhe


    2019-04-02 18:26:07.204 



                              R I C C 2 - PROGRAM

                          the quantum chemistry groups
                             at the universities in
                           Karlsruhe, Bochum & Mainz
                                   Germany



   *-----------------------------------------------------------------------*
   |                     program will use 28 thread(s)                     |
   *-----------------------------------------------------------------------*


              +--------------------------------------------------+
              | Atomic coordinate, charge and isotop information |
              +--------------------------------------------------+

                    atomic coordinates            atom    charge  isotop
         -0.39477282   -1.82279699    1.01055191    n      7.000     0
         -0.42358398   -3.72863639    1.14344278    h      1.000     0
         -2.73319042   -0.65116395    0.57950072    c      6.000     0
         -4.65106342   -1.91011932    0.37396161    o      8.000     0
         -2.56583650    2.08471864    0.43112927    c      6.000     0
         -4.26430335    3.15155431    0.09419777    h      1.000     0
         -0.30803140    3.23122868    0.72022437    c      6.000     0
         -0.08747630    5.25806075    0.62993961    h      1.000     0
          1.86223458    1.89128350    1.15501264    n      7.000     0
          3.52917652    2.77209175    1.40743836    h      1.000     0
          1.94078826   -0.71652766    1.34670810    c      6.000     0
          3.87242055   -1.88480430    1.77116431    o      8.000     0
          2.15695697    4.45414407    7.66676664    c      6.000     0
          1.34277108    5.04194091    5.86626853    h      1.000     0
          0.95842857    5.22030163    9.15633883    h      1.000     0
          4.01433104    5.32426357    7.84274075    h      1.000     0
          2.29493809    1.58389394    7.83593179    c      6.000     0
          3.10824531    1.03669944    9.65250843    h      1.000     0
          3.56972767    0.84470762    6.39006800    h      1.000     0
         -0.28413215    0.34013922    7.54337052    c      6.000     0
         -1.55259997    1.03721347    9.02041682    h      1.000     0
         -1.12972955    0.92645513    5.74831924    h      1.000     0
         -0.17776147   -2.53354190    7.65606527    c      6.000     0
          0.62273690   -3.10505256    9.47140458    h      1.000     0
          1.12902523   -3.21739399    6.21136505    h      1.000     0
         -2.76533120   -3.74650648    7.30878340    c      6.000     0
         -3.59374744   -3.22974635    5.49429575    h      1.000     0
         -2.65773247   -5.80020110    7.39203942    h      1.000     0
         -4.06539244   -3.12602249    8.78132045    h      1.000     0
 
       center of nuclear mass  :   -0.11249498   -0.01455854    3.54551933
       center of nuclear charge:   -0.10106633    0.02804560    3.73152944

              +--------------------------------------------------+
              |               basis set information              |
              +--------------------------------------------------+

              we will work with the 1s 3p 5d 7f 9g ... basis set
              ...i.e. with spherical basis functions...

   type   atoms  prim   cont   basis
   ---------------------------------------------------------------------------
    n        2     77     55   cc-pVQZ   [5s4p3d2f1g|21s6p3d2f1g]
    h       16     32     30   cc-pVQZ   [4s3p2d1f|6s3p2d1f]
    c        9     77     55   cc-pVQZ   [5s4p3d2f1g|21s6p3d2f1g]
    o        2     77     55   cc-pVQZ   [5s4p3d2f1g|21s6p3d2f1g]
   ---------------------------------------------------------------------------
   total:   29   1513   1195
   ---------------------------------------------------------------------------

   total number of primitive shells          :  111
   total number of contracted shells         :  355
   total number of cartesian basis functions : 1470
   total number of SCF-basis functions       : 1195


 symmetry group of the molecule :   c1 

 the group has the following generators :
   c1(z)

    1 symmetry operations found

 there are 1 real representations :   a   


   =========================================================================


     restricted closed shell calculation for the wavefunction models:
               MP2        - Second Order Moeller Plesset PT


     global parameters for ricc2 program:

        hard restart (reuse of interm.) :  disabled
        soft restart (reuse of vectors) :  disabled
        threshold for vector function   :    0.100000E-05
        convergence threshold energy    :    0.100000E-06
        linear dependence threshold     :    0.100000E-13
        global print level              :      1
        maximum number of iterations    :   300
        maximum number DIIS vectors     :    10
        max. dim. of reduced space      :   100
        core memory limit (MB)          : 84000


     MP2 energy only: Energy will be calculated directly from T2 amplitudes!

     Scratch Directory : 


   =========================================================================

    der. integral neglect threshold  :  0.10E-07
    integral neglect threshold       :  0.23E-11
    integral storage threshold THIZE :  0.10E-04
    integral storage threshold THIME :         5


                  +------------------------------------------+
                  |     Auxiliary basis set information      |
                  +------------------------------------------+

              we will work with the 1s 3p 5d 7f 9g ... basis set
              ...i.e. with spherical basis functions...

   type   atoms  prim   cont   basis
   ---------------------------------------------------------------------------
    n        2    132    132   cc-pVQZ   [8s7p6d5f3g1h|8s7p6d5f3g1h]
    h       16     55     55   cc-pVQZ   [5s4p3d2f1g|5s4p3d2f1g]
    c        9    132    132   cc-pVQZ   [8s7p6d5f3g1h|8s7p6d5f3g1h]
    o        2    132    132   cc-pVQZ   [8s7p6d5f3g1h|8s7p6d5f3g1h]
   ---------------------------------------------------------------------------
   total:   29   2596   2596
   ---------------------------------------------------------------------------

   total number of primitive shells          :  105
   total number of contracted shells         :  630
   total number of cartesian basis functions : 3473
   total number of SCF-basis functions       : 2596


 maximum number of shells which are related by symmetry :  1


 The symmetry information takes   1 MB

*---------------------------------------------------------------------*
|               simplified C1 algorithm will be applied               |
*---------------------------------------------------------------------*
  MOs are in ASCII format !


 reading orbital data $scfmo  from file mos
 orbital characterization : scfconv=9



              +--------------------------------------------+
              | list of orbitals that will be kept frozen: |
              +--------------------------------------------+
              |   irrep   index      energy     occ/vir    |
              +--------------------------------------------+
              |   a         1      -20.5452     occupied   |
              |   a         2      -20.5394     occupied   |
              |   a         3      -15.6421     occupied   |
              |   a         4      -15.6254     occupied   |
              |   a         5      -11.4182     occupied   |
              |   a         6      -11.3802     occupied   |
              |   a         7      -11.3397     occupied   |
              |   a         8      -11.2544     occupied   |
              |   a         9      -11.2174     occupied   |
              |   a        10      -11.2157     occupied   |
              |   a        11      -11.2126     occupied   |
              |   a       ...        ...        occupied   |
              |   a        13      -11.2016     occupied   |
              +--------------------------------------------+



   Molecular Orbital Statistic:
   ============================

   -----------------------------
   orbitals in total:
   -----------------------------
    frozen occupied :     13
    active occupied :     37
    active virtual  :   1145
    frozen virtual  :      0
    all together    :   1195
   -----------------------------


     time in riccmos       cpu:  9.74 sec    wall:  1.04 sec    ratio:  9.4

     total memory allocated for calculation of (Q|P)**(-1/2) : 78 MiB


     calculation of (P|Q) ...
     time in lp2sym        cpu:  3.67 sec    wall:  0.13 sec    ratio: 28.0


     calculation of the Cholesky decomposition of (P|Q)**(-1) ...
     time in invmetri      cpu: 10.58 sec    wall:  0.46 sec    ratio: 22.9

   threshold for RMS(d[D]) in SCF was     :  0.10E-06
   integral neglect threshold             :  0.23E-11
   derivative integral neglect threshold  :  0.10E-07


   =========================================================================

     Energy of reference wave function is  -609.0593010391000
     Maximum orbital residual is           0.5431700423822E-06


     Number of symmetry-nonredundant auxiliary basis functions:     2596

     Block lengths for integral files:
        frozen occupied (BOI):        1 MiB
        active occupied (BJI):        1 MiB
        active virtual  (BAI):       23 MiB
        frozen virtual  (BGI):        0 MiB
               general  (BTI):       24 MiB

   =========================================================================




   **************************************************************************
   *                                                                        *
   *          OPTIMIZATION OF THE GROUND STATE CLUSTER AMPLITUDES           *
   *                                                                        *
   **************************************************************************


   Iter.   MP2 energy       Norm(Omega)   Norm(t1)  Norm(t2)     cpu    wall
   ...........................................................................
    1   -611.5977605618     ------          0.00000   0.51301    3.05    0.12
   ...........................................................................


     time in total         cpu:  3 min  3 s  wall:  0 min  7 s  ratio: 26.2


     **********************************************************************
     *                                                                    *
     *   RHF  energy                             :   -609.0593010391      *
     *   MP2 correlation energy (doubles)        :     -2.5384595227      *
     *                                                                    *
     *   Final MP2 energy                        :   -611.5977605618      *
     *                                                                    *
     *    E(S)   =     -1.6281541528      E(T)   =     -0.9103053699      *
     *    E(OS)  =     -1.9315892761      E(SS)  =     -0.6068702466      *
     *                                                                    *
     *   SCS-MP2 energy                          :   -611.5794982526      *
     *   (computed with  C(OS) =   1.2000  and  C(SS) =   0.3333)         *
     *                                                                    *
     *   SOS-MP2 energy                          :   -611.5703670980      *
     *   (computed with  C(OS) =   1.3000)                                *
     *                                                                    *
     *   Norm of MP1 T2 amplitudes               :      0.5130085495      *
     *                                                                    *
     **********************************************************************



    ------------------------------------------------------------------------
         total  cpu-time :  5 minutes and 51 seconds
         total wall-time :  14.80 seconds
    ------------------------------------------------------------------------

   ****  ricc2 : all done  ****


    2019-04-02 18:26:21.964 

