
   OpenMP run-time library returned nthreads =  8

 ricc2 (c-13-38) : TURBOMOLE V7.3 ( 22142 ) 4 Jul 2018 at 18:12:42
 Copyright (C) 2018 TURBOMOLE GmbH, Karlsruhe


    2019-03-14 21:52:02.455 



                              R I C C 2 - PROGRAM

                          the quantum chemistry groups
                             at the universities in
                           Karlsruhe, Bochum & Mainz
                                   Germany



   *-----------------------------------------------------------------------*
   |                     program will use  8 thread(s)                     |
   *-----------------------------------------------------------------------*


              +--------------------------------------------------+
              | Atomic coordinate, charge and isotop information |
              +--------------------------------------------------+

                    atomic coordinates            atom    charge  isotop
          1.35323061   -1.83487764    8.35180463    c      6.000     0
          1.33432773   -1.84971329    5.72023982    c      6.000     0
         -0.05038535   -0.03022455    9.66981846    c      6.000     0
         -0.02339181   -0.01634270    4.38825803    c      6.000     0
         -1.44026825    1.78151055    8.34706624    c      6.000     0
         -1.39448303    1.81020133    5.71590596    c      6.000     0
         -0.01002541   -0.00957737    1.54688684    c      6.000     0
         -0.71244440    1.99678102    0.43861828    o      8.000     0
          0.70197594   -2.01005326    0.43554592    o      8.000     0
          2.45749504   -3.22647612    9.38068689    h      1.000     0
          2.37404005   -3.25582621    4.65113501    h      1.000     0
         -0.06095465   -0.03560796   11.72386454    h      1.000     0
         -2.55457623    3.16809886    9.37191360    h      1.000     0
         -2.42389050    3.22158305    4.64376839    h      1.000     0
 
       center of nuclear mass  :   -0.02602080   -0.01759909    4.78416197
       center of nuclear charge:   -0.02662868   -0.01791347    4.90800892

              +--------------------------------------------------+
              |               basis set information              |
              +--------------------------------------------------+

              we will work with the 1s 3p 5d 7f 9g ... basis set
              ...i.e. with spherical basis functions...

   type   atoms  prim   cont   basis
   ---------------------------------------------------------------------------
    c        7     77     55   cc-pVQZ   [5s4p3d2f1g|21s6p3d2f1g]
    o        2     77     55   cc-pVQZ   [5s4p3d2f1g|21s6p3d2f1g]
    h        5     32     30   cc-pVQZ   [4s3p2d1f|6s3p2d1f]
   ---------------------------------------------------------------------------
   total:   14    853    645
   ---------------------------------------------------------------------------

   total number of primitive shells          :   78
   total number of contracted shells         :  185
   total number of cartesian basis functions :  805
   total number of SCF-basis functions       :  645


 symmetry group of the molecule :   c1 

 the group has the following generators :
   c1(z)

    1 symmetry operations found

 there are 1 real representations :   a   


   =========================================================================


     restricted closed shell calculation for the wavefunction models:
               MP2        - Second Order Moeller Plesset PT


     global parameters for ricc2 program:

        hard restart (reuse of interm.) :  disabled
        soft restart (reuse of vectors) :  disabled
        threshold for vector function   :    0.100000E-05
        convergence threshold energy    :    0.100000E-06
        linear dependence threshold     :    0.100000E-13
        global print level              :      1
        maximum number of iterations    :   300
        maximum number DIIS vectors     :    10
        max. dim. of reduced space      :   100
        core memory limit (MB)          : 16000


     MP2 energy only: Energy will be calculated directly from T2 amplitudes!

     Scratch Directory : 


   =========================================================================

    der. integral neglect threshold  :  0.10E-07
    integral neglect threshold       :  0.41E-11
    integral storage threshold THIZE :  0.10E-04
    integral storage threshold THIME :         5


                  +------------------------------------------+
                  |     Auxiliary basis set information      |
                  +------------------------------------------+

              we will work with the 1s 3p 5d 7f 9g ... basis set
              ...i.e. with spherical basis functions...

   type   atoms  prim   cont   basis
   ---------------------------------------------------------------------------
    c        7    132    132   cc-pVQZ   [8s7p6d5f3g1h|8s7p6d5f3g1h]
    o        2    132    132   cc-pVQZ   [8s7p6d5f3g1h|8s7p6d5f3g1h]
    h        5     55     55   cc-pVQZ   [5s4p3d2f1g|5s4p3d2f1g]
   ---------------------------------------------------------------------------
   total:   14   1463   1463
   ---------------------------------------------------------------------------

   total number of primitive shells          :   75
   total number of contracted shells         :  345
   total number of cartesian basis functions : 1979
   total number of SCF-basis functions       : 1463


 maximum number of shells which are related by symmetry :  1


 The symmetry information takes   1 MB

*---------------------------------------------------------------------*
|               simplified C1 algorithm will be applied               |
*---------------------------------------------------------------------*
  MOs are in ASCII format !


 reading orbital data $scfmo  from file mos
 orbital characterization : scfconv=7



              +--------------------------------------------+
              | list of orbitals that will be kept frozen: |
              +--------------------------------------------+
              |   irrep   index      energy     occ/vir    |
              +--------------------------------------------+
              |   a         1      -20.2930     occupied   |
              |   a         2      -20.2929     occupied   |
              |   a         3      -11.1452     occupied   |
              |   a         4      -11.1153     occupied   |
              |   a         5      -11.1102     occupied   |
              |   a         6      -11.1100     occupied   |
              |   a         7      -11.0982     occupied   |
              |   a         8      -11.0981     occupied   |
              |   a         9      -11.0891     occupied   |
              +--------------------------------------------+



   Molecular Orbital Statistic:
   ============================

   -----------------------------
   orbitals in total:
   -----------------------------
    frozen occupied :      9
    active occupied :     23
    active virtual  :    613
    frozen virtual  :      0
    all together    :    645
   -----------------------------


     time in riccmos       cpu:  2.36 sec    wall:  0.58 sec    ratio:  4.1

     total memory allocated for calculation of (Q|P)**(-1/2) : 25 MiB


     calculation of (P|Q) ...
     time in lp2sym        cpu:  0.66 sec    wall:  0.08 sec    ratio:  8.0


     calculation of the Cholesky decomposition of (P|Q)**(-1) ...
     time in invmetri      cpu:  2.51 sec    wall:  0.32 sec    ratio:  7.9

   threshold for RMS(d[D]) in SCF was     :  0.10E-06
   integral neglect threshold             :  0.41E-11
   derivative integral neglect threshold  :  0.10E-07


   =========================================================================

     Energy of reference wave function is  -417.9272377765000
     Maximum orbital residual is           0.9668450972555E-05


     Number of symmetry-nonredundant auxiliary basis functions:     1463

     Block lengths for integral files:
        frozen occupied (BOI):        1 MiB
        active occupied (BJI):        1 MiB
        active virtual  (BAI):        7 MiB
        frozen virtual  (BGI):        0 MiB
               general  (BTI):        8 MiB

   =========================================================================




   **************************************************************************
   *                                                                        *
   *          OPTIMIZATION OF THE GROUND STATE CLUSTER AMPLITUDES           *
   *                                                                        *
   **************************************************************************


   Iter.   MP2 energy       Norm(Omega)   Norm(t1)  Norm(t2)     cpu    wall
   ...........................................................................
    1   -419.6083683504     ------          0.00000   0.42383    0.85    0.11
   ...........................................................................


     time in total         cpu: 50.85 sec    wall:  6.39 sec    ratio:  8.0


     **********************************************************************
     *                                                                    *
     *   RHF  energy                             :   -417.9272377765      *
     *   MP2 correlation energy (doubles)        :     -1.6811305739      *
     *                                                                    *
     *   Final MP2 energy                        :   -419.6083683504      *
     *                                                                    *
     *    E(S)   =     -1.0388943419      E(T)   =     -0.6422362319      *
     *    E(OS)  =     -1.2529730859      E(SS)  =     -0.4281574880      *
     *                                                                    *
     *   SCS-MP2 energy                          :   -419.5735246422      *
     *   (computed with  C(OS) =   1.2000  and  C(SS) =   0.3333)         *
     *                                                                    *
     *   SOS-MP2 energy                          :   -419.5561027882      *
     *   (computed with  C(OS) =   1.3000)                                *
     *                                                                    *
     *   Norm of MP1 T2 amplitudes               :      0.4238290146      *
     *                                                                    *
     **********************************************************************



    ------------------------------------------------------------------------
         total  cpu-time :  1 minutes and 41 seconds
         total wall-time :  13.40 seconds
    ------------------------------------------------------------------------

   ****  ricc2 : all done  ****


    2019-03-14 21:52:15.829 

