
   OpenMP run-time library returned nthreads = 16
 operating system is UNIX !

 dscf (c-3-41) : TURBOMOLE V7.3 ( 22142 ) 4 Jul 2018 at 18:12:42
 Copyright (C) 2018 TURBOMOLE GmbH, Karlsruhe


    2019-03-10 18:03:28.277 



                             d s c f - program

                   idea & directorship : reinhart ahlrichs
                   program development : marco haeser
                                         michael baer
                           dft version : oliver treutler


                          quantum chemistry group
                          universitaet  karlsruhe
                                  germany




                          References             
                                                 
          TURBOMOLE:                             
              R. Ahlrichs, M. Baer, M. Haeser, H. Horn, and
              C. Koelmel
              Electronic structure calculations on workstation
              computers: the program system TURBOMOLE
              Chem. Phys. Lett. 162: 165 (1989)
          Density Functional:                              
              O. Treutler and R. Ahlrichs                      
              Efficient Molecular Numerical Integration Schemes
              J. Chem. Phys. 102: 346 (1995)                   
          Parallel Version:                                
              Performance of parallel TURBOMOLE for Density    
              Functional Calculations                          
              M. v. Arnim and R. Ahlrichs                      
              J. Comp. Chem. 19: 1746 (1998)                   
                                         



 UHF mode switched on !


              +--------------------------------------------------+
              | Atomic coordinate, charge and isotop information |
              +--------------------------------------------------+

                    atomic coordinates            atom    charge  isotop
         -0.03535146    4.29107920    0.24982253    c      6.000     0
         -0.75738963   -0.11048164    0.42116808    c      6.000     0
         -2.19939078    3.86477743    1.76242829    c      6.000     0
         -2.65217891    1.10656338    1.87986452    c      6.000     0
         -3.30209698    5.99522864    2.86863730    c      6.000     0
         -0.23569882    8.70662256    0.92669905    c      6.000     0
         -2.50182640   -4.09486110    1.45392160    c      6.000     0
         -2.31383298    8.41050675    2.49430196    c      6.000     0
          0.96296462    1.81300021   -0.67826082    c      6.000     0
         -0.65587480   -2.71402037    0.18598611    c      6.000     0
          0.95771161    6.65315783   -0.21994540    c      6.000     0
         -4.38208902   -2.95815994    2.91139948    c      6.000     0
         -4.46480965   -0.33478538    3.13359756    c      6.000     0
         -5.54853087    5.85575495    4.50943713    n      7.000     0
          0.75818111   11.27147990    0.50662751    n      7.000     0
         -2.46689288   -6.87084789    1.25422892    n      7.000     0
         -7.27881521    4.43174722    3.85754329    o      8.000     0
         -5.56674865    7.21105183    6.40383546    o      8.000     0
          2.62925103   11.47775583   -0.87168545    o      8.000     0
         -0.76880662   -7.84789201   -0.00946968    o      8.000     0
         -0.33539161   13.04547697    1.55802431    o      8.000     0
         -4.14386807   -8.05678335    2.37070255    o      8.000     0
          2.80988501    1.53021009   -2.02642837    o      8.000     0
         -5.94167942    0.53371505    4.24582014    h      1.000     0
         -3.16269627   10.03483304    3.40371934    h      1.000     0
         -5.75831993   -4.14366486    3.84880881    h      1.000     0
          2.60460665    6.90346163   -1.40880503    h      1.000     0
          0.78167161   -3.64955053   -0.91979858    h      1.000     0
 
       center of nuclear mass  :   -1.82385760    2.75999102    1.54330834
       center of nuclear charge:   -1.83120155    2.74736126    1.54787311

              +--------------------------------------------------+
              |               basis set information              |
              +--------------------------------------------------+

              we will work with the 1s 3p 5d 7f 9g ... basis set
              ...i.e. with spherical basis functions...

   type   atoms  prim   cont   basis
   ---------------------------------------------------------------------------
    c       13     77     55   cc-pVQZ   [5s4p3d2f1g|21s6p3d2f1g]
    n        3     77     55   cc-pVQZ   [5s4p3d2f1g|21s6p3d2f1g]
    o        7     77     55   cc-pVQZ   [5s4p3d2f1g|21s6p3d2f1g]
    h        5     32     30   cc-pVQZ   [4s3p2d1f|6s3p2d1f]
   ---------------------------------------------------------------------------
   total:   28   1931   1415
   ---------------------------------------------------------------------------

   total number of primitive shells          :  111
   total number of contracted shells         :  395
   total number of cartesian basis functions : 1785
   total number of SCF-basis functions       : 1415


 integral neglect threshold       :  0.19E-11
 integral storage threshold THIZE :  0.10E-04
 integral storage threshold THIME :         5


 DENSITY CONVERGENCE CHECK SWITCHED ON !
 SCF CONVERGENCE IF RMS(delta[D]) <     0.1000000000E-06


 symmetry group of the molecule :   c1 

 the group has the following generators :
   c1(z)

    1 symmetry operations found

 there are 1 real representations :   a   

 maximum number of shells which are related by symmetry :  1


    mo occupation :
   irrep   mo's   occupied
    a     1415       81
 
 number of basis functions   :                   1415
 number of occupied orbitals :                     81
 

 automatic virtual orbital shift switched on 
      shift if e(lumo)-e(homo) < 0.10000000    


   ----> a dscf RESTART run will be tried ! <----
     2e integrals will be read from 2e integral file(s)

 $restart flag 'dscf  twoint' will be switched off !


          ------------------------
          nuclear repulsion energy  :   1798.05111018    
          ------------------------


         -----------------
         -S,T+V- integrals
         -----------------

 1e-integrals will be neglected if expon. factor < 0.187225E-12
 
   Difference densities algorithm switched on.
   The maximal number of linear combinations of
   difference densities is                    20 .

 DIIS switched on: error vector is FDS-SDF
 Max. Iterations for DIIS is     :   5
 DIIS matrix (see manual) 
    Scaling factor of diagonals  :  1.200
    threshold for scaling factor :  0.000

 scf convergence criterion : increment of total energy < .1000000D-06
                  and increment of one-electron energy < .1000000D-03

  MOs are in ASCII format !


 reading orbital data $uhfmo_alpha  from file alpha
 orbital characterization : scfdump=1

 reading orbital data $uhfmo_beta  from file beta
 orbital characterization : scfdump=1

 DSCF restart information will be dumped onto file alpha


 complete restart information read in from $restartd
 iterations from earlier run will be continued
no density matrices from previous iterations found
  expected :                      1  found :                      0
 
                                              current damping :  0.250
 ITERATION  ENERGY          1e-ENERGY        2e-ENERGY     RMS[dD(SAO)]   TOL
   2  -1181.8468084295    -5186.2683413     2206.3704227    0.985D-02 0.187D-11
          max. resid. norm for Fia-block=  2.058D-01 for orbital     81a    alpha
          max. resid. fock norm         =  5.312D-01 for orbital   1283a    beta 
          irrep a   : virtual orbitals shifted by    0.02633
          Delta Eig. =   200.5560283954 eV 
 
                                              current damping :  0.150
 ITERATION  ENERGY          1e-ENERGY        2e-ENERGY     RMS[dD(SAO)]   TOL
   3  -1182.4614886640    -5187.8237849     2207.3111861    0.423D-02 0.138D-11
          Norm of current diis error:  1.2908    
          max. resid. norm for Fia-block=  9.365D-02 for orbital     79a    beta 
          max. resid. fock norm         =  1.683D-01 for orbital   1217a    beta 
          Delta Eig. =    53.9107609297 eV 
 
                                              current damping :  0.100
 ITERATION  ENERGY          1e-ENERGY        2e-ENERGY     RMS[dD(SAO)]   TOL
   4  -1182.5928376310    -5190.0059094     2209.3619616    0.136D-02 0.103D-11
          Norm of current diis error: 0.63388    
          max. resid. norm for Fia-block=  4.759D-02 for orbital     81a    alpha
          max. resid. fock norm         =  6.166D-02 for orbital     81a    alpha
          Delta Eig. =     5.9697020020 eV 
 
                                              current damping :  0.150
 ITERATION  ENERGY          1e-ENERGY        2e-ENERGY     RMS[dD(SAO)]   TOL
   5  -1182.6320460085    -5188.8963658     2208.2132096    0.493D-03 0.885D-12
          Norm of current diis error: 0.27067    
          max. resid. norm for Fia-block=  2.225D-02 for orbital     81a    alpha
          max. resid. fock norm         =  2.686D-02 for orbital     82a    alpha
 mo-orthogonalization: Cholesky decomposition
          Delta Eig. =     1.4317690225 eV 
 
                                              current damping :  0.200
 ITERATION  ENERGY          1e-ENERGY        2e-ENERGY     RMS[dD(SAO)]   TOL
   6  -1182.6411749629    -5189.2489032     2208.5566180    0.191D-03 0.817D-12
          Norm of current diis error: 0.13336    
          max. resid. norm for Fia-block=  1.392D-02 for orbital     79a    alpha
          max. resid. fock norm         =  1.634D-02 for orbital     82a    alpha
          Delta Eig. =     0.5734500951 eV 
 
                                              current damping :  0.100
 ITERATION  ENERGY          1e-ENERGY        2e-ENERGY     RMS[dD(SAO)]   TOL
   7  -1182.6443239950    -5189.2598902     2208.5644561    0.750D-04 0.770D-12
          Norm of current diis error: 0.82318E-01
          max. resid. norm for Fia-block=  9.068D-03 for orbital     75a    alpha
          max. resid. fock norm         =  9.461D-03 for orbital     75a    alpha
          Delta Eig. =     0.2695905268 eV 
 
                                              current damping :  0.150
 ITERATION  ENERGY          1e-ENERGY        2e-ENERGY     RMS[dD(SAO)]   TOL
   8  -1182.6458110422    -5189.2488485     2208.5519272    0.425D-04 0.716D-12
          Norm of current diis error: 0.59637E-01
          max. resid. norm for Fia-block=  8.301D-03 for orbital     80a    alpha
          max. resid. fock norm         =  8.337D-03 for orbital     80a    alpha
          Delta Eig. =     0.1157962716 eV 
 
                                              current damping :  0.200
 ITERATION  ENERGY          1e-ENERGY        2e-ENERGY     RMS[dD(SAO)]   TOL
   9  -1182.6465599747    -5189.2654695     2208.5677993    0.159D-04 0.683D-12
          Norm of current diis error: 0.53269E-01
          max. resid. norm for Fia-block=  7.211D-03 for orbital     78a    beta 
          max. resid. fock norm         =  7.225D-03 for orbital     78a    beta 
          Delta Eig. =     0.0690394355 eV 
 
                                              current damping :  0.100
 ITERATION  ENERGY          1e-ENERGY        2e-ENERGY     RMS[dD(SAO)]   TOL
  10  -1182.6471542025    -5189.2718702     2208.5736058    0.972D-05 0.646D-12
          Norm of current diis error: 0.52376E-01
          max. resid. norm for Fia-block=  5.969D-03 for orbital     80a    alpha
          max. resid. fock norm         =  5.976D-03 for orbital     80a    alpha
 mo-orthogonalization: Cholesky decomposition
          Delta Eig. =     0.0322585172 eV 
 
                                              current damping :  0.150
 ITERATION  ENERGY          1e-ENERGY        2e-ENERGY     RMS[dD(SAO)]   TOL
  11  -1182.6477115837    -5189.2720449     2208.5732231    0.498D-05 0.605D-12
          Norm of current diis error: 0.53061E-01
          max. resid. norm for Fia-block=  3.470D-03 for orbital     78a    beta 
          max. resid. fock norm         =  3.476D-03 for orbital     78a    beta 
          Delta Eig. =     0.0163115583 eV 
 
                                              current damping :  0.200
 ITERATION  ENERGY          1e-ENERGY        2e-ENERGY     RMS[dD(SAO)]   TOL
  12  -1182.6480446225    -5189.2739410     2208.5747862    0.299D-05 0.576D-12
          Norm of current diis error: 0.53722E-01
          max. resid. norm for Fia-block=  1.088D-03 for orbital     78a    beta 
          max. resid. fock norm         =  1.089D-03 for orbital     78a    beta 
          Delta Eig. =     0.0059834774 eV 
 
                                              current damping :  0.250
 ITERATION  ENERGY          1e-ENERGY        2e-ENERGY     RMS[dD(SAO)]   TOL
  13  -1182.6481544675    -5189.2738014     2208.5745367    0.161D-05 0.562D-12
          Norm of current diis error: 0.54083E-01
          max. resid. norm for Fia-block=  7.993D-04 for orbital     78a    beta 
          max. resid. fock norm         =  8.005D-04 for orbital     78a    beta 
          Delta Eig. =     0.0055560735 eV 
 
                                              current damping :  0.300
 ITERATION  ENERGY          1e-ENERGY        2e-ENERGY     RMS[dD(SAO)]   TOL
  14  -1182.6482285066    -5189.2739591     2208.5746204    0.676D-06 0.552D-12
          Norm of current diis error: 0.54238E-01
          max. resid. norm for Fia-block=  2.878D-03 for orbital     80a    alpha
          max. resid. fock norm         =  2.881D-03 for orbital     78a    beta 
          Delta Eig. =     0.0114544151 eV 
 
                                              current damping :  0.150
 ITERATION  ENERGY          1e-ENERGY        2e-ENERGY     RMS[dD(SAO)]   TOL
  15  -1182.6484761111    -5189.2748382     2208.5752519    0.205D-05 0.519D-12
          Norm of current diis error: 0.54578E-01
          max. resid. norm for Fia-block=  3.915D-03 for orbital     78a    beta 
          max. resid. fock norm         =  3.922D-03 for orbital     78a    beta 
 mo-orthogonalization: Cholesky decomposition
          Delta Eig. =     0.0175176500 eV 
 
                                              current damping :  0.100
 ITERATION  ENERGY          1e-ENERGY        2e-ENERGY     RMS[dD(SAO)]   TOL
  16  -1182.6488645920    -5189.2770377     2208.5770629    0.323D-05 0.460D-12
          Norm of current diis error: 0.55115E-01
          max. resid. norm for Fia-block=  3.206D-03 for orbital     78a    beta 
          max. resid. fock norm         =  3.212D-03 for orbital     78a    beta 
          Delta Eig. =     0.0145159580 eV 
 
                                              current damping :  0.100
 ITERATION  ENERGY          1e-ENERGY        2e-ENERGY     RMS[dD(SAO)]   TOL
  17  -1182.6492092531    -5189.2783939     2208.5780744    0.293D-05 0.407D-12
          Norm of current diis error: 0.55564E-01
          max. resid. norm for Fia-block=  2.316D-03 for orbital     78a    beta 
          max. resid. fock norm         =  2.320D-03 for orbital     78a    beta 
          Delta Eig. =     0.0108025239 eV 
 
                                              current damping :  0.100
 ITERATION  ENERGY          1e-ENERGY        2e-ENERGY     RMS[dD(SAO)]   TOL
  18  -1182.6494660797    -5189.2797131     2208.5791369    0.223D-05 0.370D-12
          Norm of current diis error: 0.55875E-01
          max. resid. norm for Fia-block=  2.249D-03 for orbital     78a    beta 
          max. resid. fock norm         =  2.253D-03 for orbital     78a    beta 
          Delta Eig. =     0.0108012800 eV 
 
                                              current damping :  0.100
 ITERATION  ENERGY          1e-ENERGY        2e-ENERGY     RMS[dD(SAO)]   TOL
  19  -1182.6497186513    -5189.2809382     2208.5801094    0.221D-05 0.340D-12
          Norm of current diis error: 0.56135E-01
          max. resid. norm for Fia-block=  2.838D-03 for orbital     78a    beta 
          max. resid. fock norm         =  2.843D-03 for orbital     78a    beta 
          Delta Eig. =     0.0140667801 eV 
 
                                              current damping :  0.100
 ITERATION  ENERGY          1e-ENERGY        2e-ENERGY     RMS[dD(SAO)]   TOL
  20  -1182.6500393476    -5189.2826612     2208.5815117    0.284D-05 0.310D-12
          Norm of current diis error: 0.56398E-01
          max. resid. norm for Fia-block=  3.318D-03 for orbital     78a    beta 
          max. resid. fock norm         =  3.325D-03 for orbital     78a    beta 
 mo-orthogonalization: Cholesky decomposition
          Delta Eig. =     0.0167778141 eV 
 
                                              current damping :  0.100
 ITERATION  ENERGY          1e-ENERGY        2e-ENERGY     RMS[dD(SAO)]   TOL
  21  -1182.6504199740    -5189.2846573     2208.5831272    0.344D-05 0.284D-12
          Norm of current diis error: 0.56627E-01
          max. resid. norm for Fia-block=  3.405D-03 for orbital     78a    beta 
          max. resid. fock norm         =  3.413D-03 for orbital     78a    beta 
          Delta Eig. =     0.0177475395 eV 
 
                                              current damping :  0.100
 ITERATION  ENERGY          1e-ENERGY        2e-ENERGY     RMS[dD(SAO)]   TOL
  22  -1182.6508179436    -5189.2869541     2208.5850260    0.368D-05 0.262D-12
          Norm of current diis error: 0.56779E-01
          max. resid. norm for Fia-block=  3.436D-03 for orbital     78a    beta 
          max. resid. fock norm         =  3.444D-03 for orbital     78a    beta 
          Delta Eig. =     0.0184182082 eV 
 
                                              current damping :  0.100
 ITERATION  ENERGY          1e-ENERGY        2e-ENERGY     RMS[dD(SAO)]   TOL
  23  -1182.6512272349    -5189.2892885     2208.5869511    0.386D-05 0.187D-11
          Norm of current diis error: 0.56842E-01
          max. resid. norm for Fia-block=  3.670D-03 for orbital     78a    beta 
          max. resid. fock norm         =  3.678D-03 for orbital     78a    beta 
          Delta Eig. =     0.0203921352 eV 
 
                                              current damping :  0.100
 ITERATION  ENERGY          1e-ENERGY        2e-ENERGY     RMS[dD(SAO)]   TOL
  24  -1182.6516711824    -5189.2920386     2208.5892572    0.429D-05 0.118D-11
          Norm of current diis error: 0.56802E-01
          max. resid. norm for Fia-block=  4.122D-03 for orbital     78a    beta 
          max. resid. fock norm         =  4.132D-03 for orbital     78a    beta 
          Delta Eig. =     0.0237122337 eV 
 
                                              current damping :  0.100
 ITERATION  ENERGY          1e-ENERGY        2e-ENERGY     RMS[dD(SAO)]   TOL
  25  -1182.6521769550    -5189.2952573     2208.5919702    0.500D-05 0.761D-12
          Norm of current diis error: 0.56618E-01
          max. resid. norm for Fia-block=  4.761D-03 for orbital     78a    beta 
          max. resid. fock norm         =  4.773D-03 for orbital     78a    beta 
 mo-orthogonalization: Cholesky decomposition
          Delta Eig. =     0.0285235905 eV 
 
                                              current damping :  0.100
 ITERATION  ENERGY          1e-ENERGY        2e-ENERGY     RMS[dD(SAO)]   TOL
  26  -1182.6527690340    -5189.2993143     2208.5954351    0.603D-05 0.562D-12
          Norm of current diis error: 0.56224E-01
          max. resid. norm for Fia-block=  5.683D-03 for orbital     78a    beta 
          max. resid. fock norm         =  5.698D-03 for orbital     78a    beta 
          Delta Eig. =     0.0355972521 eV 
 
                                              current damping :  0.100
 ITERATION  ENERGY          1e-ENERGY        2e-ENERGY     RMS[dD(SAO)]   TOL
  27  -1182.6534845184    -5189.3044995     2208.5999048    0.757D-05 0.444D-12
          Norm of current diis error: 0.55497E-01
          max. resid. norm for Fia-block=  7.160D-03 for orbital     79a    beta 
          max. resid. fock norm         =  7.198D-03 for orbital     79a    beta 
          Delta Eig. =     0.0472529523 eV 
 
                                              current damping :  0.100
 ITERATION  ENERGY          1e-ENERGY        2e-ENERGY     RMS[dD(SAO)]   TOL
  28  -1182.6543913258    -5189.3117663     2208.6062648    0.101D-04 0.361D-12
          Norm of current diis error: 0.54188E-01
          max. resid. norm for Fia-block=  9.750D-03 for orbital     79a    beta 
          max. resid. fock norm         =  9.800D-03 for orbital     79a    beta 
          Delta Eig. =     0.0664961904 eV 
 
                                              current damping :  0.100
 ITERATION  ENERGY          1e-ENERGY        2e-ENERGY     RMS[dD(SAO)]   TOL
  29  -1182.6555851592    -5189.3225609     2208.6158656    0.143D-04 0.298D-12
          Norm of current diis error: 0.51813E-01
          max. resid. norm for Fia-block=  1.298D-02 for orbital     79a    beta 
          max. resid. fock norm         =  1.304D-02 for orbital     79a    beta 
          Delta Eig. =     0.0915573536 eV 
 
                                              current damping :  0.100
 ITERATION  ENERGY          1e-ENERGY        2e-ENERGY     RMS[dD(SAO)]   TOL
  30  -1182.6570736063    -5189.3387072     2208.6305234    0.201D-04 0.252D-12
          Norm of current diis error: 0.47839E-01
          max. resid. norm for Fia-block=  1.360D-02 for orbital     79a    beta 
          max. resid. fock norm         =  1.365D-02 for orbital     79a    beta 
 mo-orthogonalization: Cholesky decomposition
          Delta Eig. =     0.0963221037 eV 
 
                                              current damping :  0.100
 ITERATION  ENERGY          1e-ENERGY        2e-ENERGY     RMS[dD(SAO)]   TOL
  31  -1182.6584832277    -5189.3568648     2208.6472714    0.223D-04 0.236D-12
          Norm of current diis error: 0.43155E-01
          max. resid. norm for Fia-block=  1.062D-02 for orbital     77a    beta 
          max. resid. fock norm         =  1.066D-02 for orbital     77a    beta 
          Delta Eig. =     0.0653284267 eV 
 
                                              current damping :  0.100
 ITERATION  ENERGY          1e-ENERGY        2e-ENERGY     RMS[dD(SAO)]   TOL
  32  -1182.6594267878    -5189.3698409     2208.6593039    0.172D-04 0.256D-12
          Norm of current diis error: 0.39503E-01
          max. resid. norm for Fia-block=  9.321D-03 for orbital     77a    beta 
          max. resid. fock norm         =  9.353D-03 for orbital     77a    beta 
          Delta Eig. =     0.0502086887 eV 
 
                                              current damping :  0.100
 ITERATION  ENERGY          1e-ENERGY        2e-ENERGY     RMS[dD(SAO)]   TOL
  33  -1182.6601372283    -5189.3804070     2208.6691596    0.143D-04 0.236D-12
          Norm of current diis error: 0.36090E-01
          max. resid. norm for Fia-block=  1.115D-02 for orbital     77a    beta 
          max. resid. fock norm         =  1.120D-02 for orbital     77a    beta 
          Delta Eig. =     0.0599760673 eV 
 
                                              current damping :  0.100
 ITERATION  ENERGY          1e-ENERGY        2e-ENERGY     RMS[dD(SAO)]   TOL
  34  -1182.6608627276    -5189.3939510     2208.6819781    0.168D-04 0.236D-12
          Norm of current diis error: 0.31391E-01
          max. resid. norm for Fia-block=  1.411D-02 for orbital     77a    beta 
          max. resid. fock norm         =  1.419D-02 for orbital     77a    beta 
          Delta Eig. =     0.0775195332 eV 
 
                                              current damping :  0.100
 ITERATION  ENERGY          1e-ENERGY        2e-ENERGY     RMS[dD(SAO)]   TOL
  35  -1182.6615832065    -5189.4112287     2208.6985353    0.212D-04 0.236D-12
          Norm of current diis error: 0.24890E-01
          max. resid. norm for Fia-block=  1.130D-02 for orbital     77a    beta 
          max. resid. fock norm         =  1.139D-02 for orbital     77a    beta 
 mo-orthogonalization: Cholesky decomposition
          Delta Eig. =     0.0611712322 eV 
 
                                              current damping :  0.100
 ITERATION  ENERGY          1e-ENERGY        2e-ENERGY     RMS[dD(SAO)]   TOL
  36  -1182.6620292703    -5189.4249102     2208.7117707    0.173D-04 0.236D-12
          Norm of current diis error: 0.20629E-01
          max. resid. norm for Fia-block=  5.520D-03 for orbital     73a    beta 
          max. resid. fock norm         =  5.801D-03 for orbital     73a    beta 
          Delta Eig. =     0.0220548355 eV 
 
                                              current damping :  0.100
 ITERATION  ENERGY          1e-ENERGY        2e-ENERGY     RMS[dD(SAO)]   TOL
  37  -1182.6622325054    -5189.4285471     2208.7152044    0.687D-05 0.236D-12
          Norm of current diis error: 0.20145E-01
          max. resid. norm for Fia-block=  4.278D-03 for orbital     73a    beta 
          max. resid. fock norm         =  4.473D-03 for orbital     73a    beta 
          Delta Eig. =     0.0206334920 eV 
 
                                              current damping :  0.100
 ITERATION  ENERGY          1e-ENERGY        2e-ENERGY     RMS[dD(SAO)]   TOL
  38  -1182.6623733123    -5189.4313264     2208.7178429    0.403D-05 0.236D-12
          Norm of current diis error: 0.20728E-01
          max. resid. norm for Fia-block=  1.990D-03 for orbital     73a    beta 
          max. resid. fock norm         =  2.096D-03 for orbital     73a    beta 
          Delta Eig. =     0.0052768268 eV 
 
                                              current damping :  0.100
 ITERATION  ENERGY          1e-ENERGY        2e-ENERGY     RMS[dD(SAO)]   TOL
  39  -1182.6624338454    -5189.4318864     2208.7183424    0.161D-05 0.246D-12
          Norm of current diis error: 0.21263E-01
          max. resid. norm for Fia-block=  4.689D-04 for orbital     77a    beta 
          max. resid. fock norm         =  4.739D-04 for orbital     77a    beta 
          Delta Eig. =     0.0026813612 eV 
 
                                              current damping :  0.150
 ITERATION  ENERGY          1e-ENERGY        2e-ENERGY     RMS[dD(SAO)]   TOL
  40  -1182.6624175831    -5189.4313522     2208.7178244    0.739D-06 0.247D-12
          Norm of current diis error: 0.21308E-01
          max. resid. norm for Fia-block=  8.816D-05 for orbital     77a    beta 
          max. resid. fock norm         =  8.906D-05 for orbital     77a    beta 
 mo-orthogonalization: Cholesky decomposition
          Delta Eig. =     0.0004512658 eV 
 
                                              current damping :  0.200
 ITERATION  ENERGY          1e-ENERGY        2e-ENERGY     RMS[dD(SAO)]   TOL
  41  -1182.6624209144    -5189.4315073     2208.7179762    0.140D-06 0.247D-12
          Norm of current diis error: 0.21311E-01
          max. resid. norm for Fia-block=  2.449D-03 for orbital     73a    beta 
          max. resid. fock norm         =  2.565D-03 for orbital     73a    beta 
          Delta Eig. =     0.0091453079 eV 
 
                                              current damping :  0.100
 ITERATION  ENERGY          1e-ENERGY        2e-ENERGY     RMS[dD(SAO)]   TOL
  42  -1182.6625012768    -5189.4335224     2208.7199109    0.221D-05 0.307D-12
          Norm of current diis error: 0.21701E-01
          max. resid. norm for Fia-block=  2.950D-03 for orbital     73a    beta 
          max. resid. fock norm         =  3.098D-03 for orbital     73a    beta 
          Delta Eig. =     0.0096935666 eV 
 
                                              current damping :  0.100
 ITERATION  ENERGY          1e-ENERGY        2e-ENERGY     RMS[dD(SAO)]   TOL
  43  -1182.6626032766    -5189.4354482     2208.7217347    0.256D-05 0.303D-12
          Norm of current diis error: 0.22431E-01
          max. resid. norm for Fia-block=  4.367D-04 for orbital     73a    beta 
          max. resid. fock norm         =  4.566D-04 for orbital     73a    beta 
          Delta Eig. =     0.0020690306 eV 
 
                                              current damping :  0.100
 ITERATION  ENERGY          1e-ENERGY        2e-ENERGY     RMS[dD(SAO)]   TOL
  44  -1182.6626171983    -5189.4356713     2208.7219439    0.441D-06 0.187D-11
          Norm of current diis error: 0.22587E-01
          max. resid. norm for Fia-block=  8.121D-04 for orbital     73a    beta 
          max. resid. fock norm         =  8.529D-04 for orbital     73a    beta 
          Delta Eig. =     0.0027647076 eV 
 
                                              current damping :  0.100
 ITERATION  ENERGY          1e-ENERGY        2e-ENERGY     RMS[dD(SAO)]   TOL
  45  -1182.6626453244    -5189.4361692     2208.7224137    0.695D-06 0.118D-11
          Norm of current diis error: 0.22820E-01
          max. resid. norm for Fia-block=  1.328D-03 for orbital     73a    beta 
          max. resid. fock norm         =  1.393D-03 for orbital     73a    beta 
 mo-orthogonalization: Cholesky decomposition
          Delta Eig. =     0.0049935412 eV 
 
                                              current damping :  0.100
 ITERATION  ENERGY          1e-ENERGY        2e-ENERGY     RMS[dD(SAO)]   TOL
  46  -1182.6626936375    -5189.4371915     2208.7233877    0.120D-05 0.684D-12
          Norm of current diis error: 0.23168E-01
          max. resid. norm for Fia-block=  2.253D-03 for orbital     73a    beta 
          max. resid. fock norm         =  2.363D-03 for orbital     73a    beta 
          Delta Eig. =     0.0084947020 eV 
 
                                              current damping :  0.100
 ITERATION  ENERGY          1e-ENERGY        2e-ENERGY     RMS[dD(SAO)]   TOL
  47  -1182.6627775997    -5189.4390187     2208.7251309    0.207D-05 0.480D-12
          Norm of current diis error: 0.23766E-01
          max. resid. norm for Fia-block=  1.577D-03 for orbital     73a    beta 
          max. resid. fock norm         =  1.653D-03 for orbital     73a    beta 
          Delta Eig. =     0.0062217588 eV 
 
                                              current damping :  0.100
 ITERATION  ENERGY          1e-ENERGY        2e-ENERGY     RMS[dD(SAO)]   TOL
  48  -1182.6628370819    -5189.4402995     2208.7263523    0.144D-05 0.423D-12
          Norm of current diis error: 0.24211E-01
          max. resid. norm for Fia-block=  6.613D-04 for orbital     73a    beta 
          max. resid. fock norm         =  6.944D-04 for orbital     73a    beta 
          Delta Eig. =     0.0023247591 eV 
 
                                              current damping :  0.100
 ITERATION  ENERGY          1e-ENERGY        2e-ENERGY     RMS[dD(SAO)]   TOL
  49  -1182.6628618319    -5189.4407823     2208.7268103    0.589D-06 0.406D-12
          Norm of current diis error: 0.24411E-01
          max. resid. norm for Fia-block=  1.743D-03 for orbital     73a    beta 
          max. resid. fock norm         =  1.829D-03 for orbital     73a    beta 
          Delta Eig. =     0.0064393673 eV 
 
                                              current damping :  0.100
 ITERATION  ENERGY          1e-ENERGY        2e-ENERGY     RMS[dD(SAO)]   TOL
  50  -1182.6629291197    -5189.4422406     2208.7282013    0.159D-05 0.371D-12
          Norm of current diis error: 0.24917E-01
          max. resid. norm for Fia-block=  1.600D-03 for orbital     73a    beta 
          max. resid. fock norm         =  1.679D-03 for orbital     73a    beta 
 mo-orthogonalization: Cholesky decomposition
          Delta Eig. =     0.0059210805 eV 
 
                                              current damping :  0.100
 ITERATION  ENERGY          1e-ENERGY        2e-ENERGY     RMS[dD(SAO)]   TOL
  51  -1182.6629924053    -5189.4436552     2208.7295526    0.148D-05 0.346D-12
          Norm of current diis error: 0.25378E-01
          max. resid. norm for Fia-block=  1.912D-03 for orbital     73a    beta 
          max. resid. fock norm         =  2.007D-03 for orbital     73a    beta 
          Delta Eig. =     0.0070994016 eV 
 
                                              current damping :  0.100
 ITERATION  ENERGY          1e-ENERGY        2e-ENERGY     RMS[dD(SAO)]   TOL
  52  -1182.6630695279    -5189.4453817     2208.7312020    0.179D-05 0.324D-12
          Norm of current diis error: 0.25932E-01
          max. resid. norm for Fia-block=  1.121D-03 for orbital     73a    beta 
          max. resid. fock norm         =  1.177D-03 for orbital     73a    beta 
          Delta Eig. =     0.0041260303 eV 
 
                                              current damping :  0.100
 ITERATION  ENERGY          1e-ENERGY        2e-ENERGY     RMS[dD(SAO)]   TOL
  53  -1182.6631153194    -5189.4463912     2208.7321657    0.106D-05 0.313D-12
          Norm of current diis error: 0.26262E-01
          max. resid. norm for Fia-block=  1.542D-03 for orbital     73a    beta 
          max. resid. fock norm         =  1.618D-03 for orbital     73a    beta 
          Delta Eig. =     0.0058749655 eV 
 
                                              current damping :  0.100
 ITERATION  ENERGY          1e-ENERGY        2e-ENERGY     RMS[dD(SAO)]   TOL
  54  -1182.6631792739    -5189.4478178     2208.7335283    0.147D-05 0.299D-12
          Norm of current diis error: 0.26716E-01
          max. resid. norm for Fia-block=  1.927D-03 for orbital     73a    beta 
          max. resid. fock norm         =  2.023D-03 for orbital     73a    beta 
          Delta Eig. =     0.0073630298 eV 
 
                                              current damping :  0.100
 ITERATION  ENERGY          1e-ENERGY        2e-ENERGY     RMS[dD(SAO)]   TOL
  55  -1182.6632609059    -5189.4496785     2208.7353074    0.187D-05 0.284D-12
          Norm of current diis error: 0.27280E-01
          max. resid. norm for Fia-block=  1.559D-03 for orbital     73a    beta 
          max. resid. fock norm         =  1.637D-03 for orbital     73a    beta 
 mo-orthogonalization: Cholesky decomposition
          Delta Eig. =     0.0060047051 eV 
 
                                              current damping :  0.100
 ITERATION  ENERGY          1e-ENERGY        2e-ENERGY     RMS[dD(SAO)]   TOL
  56  -1182.6633282953    -5189.4512378     2208.7367993    0.153D-05 0.274D-12
          Norm of current diis error: 0.27733E-01
          max. resid. norm for Fia-block=  1.827D-03 for orbital     73a    beta 
          max. resid. fock norm         =  1.918D-03 for orbital     73a    beta 
          Delta Eig. =     0.0070292486 eV 
 
                                              current damping :  0.100
 ITERATION  ENERGY          1e-ENERGY        2e-ENERGY     RMS[dD(SAO)]   TOL
  57  -1182.6634085793    -5189.4530960     2208.7385773    0.182D-05 0.263D-12
          Norm of current diis error: 0.28263E-01
          max. resid. norm for Fia-block=  1.376D-03 for orbital     73a    beta 
          max. resid. fock norm         =  1.445D-03 for orbital     73a    beta 
          Delta Eig. =     0.0052819900 eV 
 
                                              current damping :  0.100
 ITERATION  ENERGY          1e-ENERGY        2e-ENERGY     RMS[dD(SAO)]   TOL
  58  -1182.6634699929    -5189.4545220     2208.7399418    0.138D-05 0.256D-12
          Norm of current diis error: 0.28661E-01
          max. resid. norm for Fia-block=  2.088D-03 for orbital     73a    beta 
          max. resid. fock norm         =  2.192D-03 for orbital     73a    beta 
          Delta Eig. =     0.0079975503 eV 
 
                                              current damping :  0.100
 ITERATION  ENERGY          1e-ENERGY        2e-ENERGY     RMS[dD(SAO)]   TOL
  59  -1182.6635647571    -5189.4567351     2208.7420602    0.212D-05 0.245D-12
          Norm of current diis error: 0.29260E-01
          max. resid. norm for Fia-block=  1.759D-03 for orbital     73a    beta 
          max. resid. fock norm         =  1.847D-03 for orbital     73a    beta 
          Delta Eig. =     0.0067784641 eV 
 
                                              current damping :  0.100
 ITERATION  ENERGY          1e-ENERGY        2e-ENERGY     RMS[dD(SAO)]   TOL
  60  -1182.6636461552    -5189.4586651     2208.7439088    0.182D-05 0.241D-12
          Norm of current diis error: 0.29759E-01
          max. resid. norm for Fia-block=  1.800D-03 for orbital     73a    beta 
          max. resid. fock norm         =  1.890D-03 for orbital     73a    beta 
 mo-orthogonalization: Cholesky decomposition
          Delta Eig. =     0.0069855504 eV 
 
                                              current damping :  0.100
 ITERATION  ENERGY          1e-ENERGY        2e-ENERGY     RMS[dD(SAO)]   TOL
  61  -1182.6637308370    -5189.4606803     2208.7458393    0.188D-05 0.238D-12
          Norm of current diis error: 0.30264E-01
          max. resid. norm for Fia-block=  1.927D-03 for orbital     73a    beta 
          max. resid. fock norm         =  2.024D-03 for orbital     73a    beta 
          Delta Eig. =     0.0075351887 eV 
 
                                              current damping :  0.100
 ITERATION  ENERGY          1e-ENERGY        2e-ENERGY     RMS[dD(SAO)]   TOL
  62  -1182.6638231559    -5189.4628906     2208.7479573    0.205D-05 0.236D-12
          Norm of current diis error: 0.30798E-01
          max. resid. norm for Fia-block=  1.794D-03 for orbital     73a    beta 
          max. resid. fock norm         =  1.885D-03 for orbital     73a    beta 
          Delta Eig. =     0.0070654216 eV 
 
                                              current damping :  0.100
 ITERATION  ENERGY          1e-ENERGY        2e-ENERGY     RMS[dD(SAO)]   TOL
  63  -1182.6639105002    -5189.4649980     2208.7499774    0.193D-05 0.236D-12
          Norm of current diis error: 0.31289E-01
          max. resid. norm for Fia-block=  2.257D-03 for orbital     73a    beta 
          max. resid. fock norm         =  2.372D-03 for orbital     73a    beta 
          Delta Eig. =     0.0090236607 eV 
 
                                              current damping :  0.100
 ITERATION  ENERGY          1e-ENERGY        2e-ENERGY     RMS[dD(SAO)]   TOL
  64  -1182.6640223301    -5189.4677214     2208.7525888    0.247D-05 0.236D-12
          Norm of current diis error: 0.31896E-01
          max. resid. norm for Fia-block=  1.793D-03 for orbital     73a    beta 
          max. resid. fock norm         =  1.884D-03 for orbital     73a    beta 
          Delta Eig. =     0.0073169390 eV 
 
                                              current damping :  0.100
 ITERATION  ENERGY          1e-ENERGY        2e-ENERGY     RMS[dD(SAO)]   TOL
  65  -1182.6641128916    -5189.4699417     2208.7547186    0.199D-05 0.187D-11
          Norm of current diis error: 0.32370E-01
          max. resid. norm for Fia-block=  2.193D-03 for orbital     73a    beta 
          max. resid. fock norm         =  2.305D-03 for orbital     73a    beta 
 mo-orthogonalization: Cholesky decomposition
          Delta Eig. =     0.0091753104 eV 
 
                                              current damping :  0.100
 ITERATION  ENERGY          1e-ENERGY        2e-ENERGY     RMS[dD(SAO)]   TOL
  66  -1182.6642252890    -5189.4727130     2208.7573776    0.248D-05 0.118D-11
          Norm of current diis error: 0.32939E-01
          max. resid. norm for Fia-block=  2.074D-03 for orbital     73a    beta 
          max. resid. fock norm         =  2.180D-03 for orbital     73a    beta 
          Delta Eig. =     0.0088534998 eV 
 
                                              current damping :  0.100
 ITERATION  ENERGY          1e-ENERGY        2e-ENERGY     RMS[dD(SAO)]   TOL
  67  -1182.6643333745    -5189.4754020     2208.7599585    0.238D-05 0.797D-12
          Norm of current diis error: 0.33466E-01
          max. resid. norm for Fia-block=  2.195D-03 for orbital     73a    beta 
          max. resid. fock norm         =  2.307D-03 for orbital     73a    beta 
          Delta Eig. =     0.0096008211 eV 
 
                                              current damping :  0.100
 ITERATION  ENERGY          1e-ENERGY        2e-ENERGY     RMS[dD(SAO)]   TOL
  68  -1182.6644496515    -5189.4783136     2208.7627538    0.256D-05 0.612D-12
          Norm of current diis error: 0.34011E-01
          max. resid. norm for Fia-block=  2.338D-03 for orbital     73a    beta 
          max. resid. fock norm         =  2.458D-03 for orbital     73a    beta 
          Delta Eig. =     0.0104568460 eV 
 
                                              current damping :  0.100
 ITERATION  ENERGY          1e-ENERGY        2e-ENERGY     RMS[dD(SAO)]   TOL
  69  -1182.6645755625    -5189.4814957     2208.7658100    0.277D-05 0.514D-12
          Norm of current diis error: 0.34577E-01
          max. resid. norm for Fia-block=  2.130D-03 for orbital     73a    beta 
          max. resid. fock norm         =  2.240D-03 for orbital     73a    beta 
          Delta Eig. =     0.0097620366 eV 
 
                                              current damping :  0.100
 ITERATION  ENERGY          1e-ENERGY        2e-ENERGY     RMS[dD(SAO)]   TOL
  70  -1182.6646921251    -5189.4844637     2208.7686614    0.258D-05 0.456D-12
          Norm of current diis error: 0.35079E-01
          max. resid. norm for Fia-block=  2.510D-03 for orbital     73a    beta 
          max. resid. fock norm         =  2.639D-03 for orbital     73a    beta 
 mo-orthogonalization: Cholesky decomposition
          Delta Eig. =     0.0117692573 eV 
 
                                              current damping :  0.100
 ITERATION  ENERGY          1e-ENERGY        2e-ENERGY     RMS[dD(SAO)]   TOL
  71  -1182.6648316316    -5189.4880453     2208.7721034    0.307D-05 0.412D-12
          Norm of current diis error: 0.35653E-01
          max. resid. norm for Fia-block=  2.337D-03 for orbital     73a    beta 
          max. resid. fock norm         =  2.457D-03 for orbital     73a    beta 
          Delta Eig. =     0.0112129428 eV 
 
                                              current damping :  0.100
 ITERATION  ENERGY          1e-ENERGY        2e-ENERGY     RMS[dD(SAO)]   TOL
  72  -1182.6649635616    -5189.4914628     2208.7753891    0.290D-05 0.380D-12
          Norm of current diis error: 0.36170E-01
          max. resid. norm for Fia-block=  2.558D-03 for orbital     73a    beta 
          max. resid. fock norm         =  2.691D-03 for orbital     73a    beta 
          Delta Eig. =     0.0125682607 eV 
 
                                              current damping :  0.100
 ITERATION  ENERGY          1e-ENERGY        2e-ENERGY     RMS[dD(SAO)]   TOL
  73  -1182.6651102262    -5189.4952945     2208.7790740    0.324D-05 0.353D-12
          Norm of current diis error: 0.36717E-01
          max. resid. norm for Fia-block=  2.562D-03 for orbital     73a    beta 
          max. resid. fock norm         =  2.695D-03 for orbital     73a    beta 
          Delta Eig. =     0.0128353872 eV 
 
                                              current damping :  0.100
 ITERATION  ENERGY          1e-ENERGY        2e-ENERGY     RMS[dD(SAO)]   TOL
  74  -1182.6652593296    -5189.4992268     2208.7828572    0.330D-05 0.330D-12
          Norm of current diis error: 0.37243E-01
          max. resid. norm for Fia-block=  2.592D-03 for orbital     73a    beta 
          max. resid. fock norm         =  2.727D-03 for orbital     73a    beta 
          Delta Eig. =     0.0133482743 eV 
 
                                              current damping :  0.100
 ITERATION  ENERGY          1e-ENERGY        2e-ENERGY     RMS[dD(SAO)]   TOL
  75  -1182.6654124169    -5189.5032997     2208.7867771    0.339D-05 0.311D-12
          Norm of current diis error: 0.37754E-01
          max. resid. norm for Fia-block=  2.815D-03 for orbital     73a    beta 
          max. resid. fock norm         =  2.962D-03 for orbital     73a    beta 
 mo-orthogonalization: Cholesky decomposition
          Delta Eig. =     0.0148286079 eV 
 
                                              current damping :  0.100
 ITERATION  ENERGY          1e-ENERGY        2e-ENERGY     RMS[dD(SAO)]   TOL
  76  -1182.6655810558    -5189.5078339     2208.7911427    0.375D-05 0.293D-12
          Norm of current diis error: 0.38282E-01
          max. resid. norm for Fia-block=  2.757D-03 for orbital     73a    beta 
          max. resid. fock norm         =  2.902D-03 for orbital     73a    beta 
          Delta Eig. =     0.0148880191 eV 
 
                                              current damping :  0.100
 ITERATION  ENERGY          1e-ENERGY        2e-ENERGY     RMS[dD(SAO)]   TOL
  77  -1182.6657485981    -5189.5123834     2208.7955246    0.374D-05 0.278D-12
          Norm of current diis error: 0.38774E-01
          max. resid. norm for Fia-block=  2.958D-03 for orbital     73a    beta 
          max. resid. fock norm         =  3.113D-03 for orbital     73a    beta 
          Delta Eig. =     0.0163478149 eV 
 
                                              current damping :  0.100
 ITERATION  ENERGY          1e-ENERGY        2e-ENERGY     RMS[dD(SAO)]   TOL
  78  -1182.6659307935    -5189.5173862     2208.8003452    0.409D-05 0.263D-12
          Norm of current diis error: 0.39271E-01
          max. resid. norm for Fia-block=  2.995D-03 for orbital     73a    beta 
          max. resid. fock norm         =  3.154D-03 for orbital     73a    beta 
          Delta Eig. =     0.0169714091 eV 
 
                                              current damping :  0.100
 ITERATION  ENERGY          1e-ENERGY        2e-ENERGY     RMS[dD(SAO)]   TOL
  79  -1182.6661178224    -5189.5225794     2208.8053514    0.422D-05 0.249D-12
          Norm of current diis error: 0.39743E-01
          max. resid. norm for Fia-block=  3.125D-03 for orbital     73a    beta 
          max. resid. fock norm         =  3.291D-03 for orbital     73a    beta 
          Delta Eig. =     0.0181391349 eV 
 
                                              current damping :  0.100
 ITERATION  ENERGY          1e-ENERGY        2e-ENERGY     RMS[dD(SAO)]   TOL
  80  -1182.6663154966    -5189.5281345     2208.8107088    0.448D-05 0.237D-12
          Norm of current diis error: 0.40201E-01
          max. resid. norm for Fia-block=  3.283D-03 for orbital     73a    beta 
          max. resid. fock norm         =  3.458D-03 for orbital     73a    beta 
 mo-orthogonalization: Cholesky decomposition
          Delta Eig. =     0.0195256514 eV 
 
                                              current damping :  0.100
 ITERATION  ENERGY          1e-ENERGY        2e-ENERGY     RMS[dD(SAO)]   TOL
  81  -1182.6665258499    -5189.5341208     2208.8164847    0.480D-05 0.236D-12
          Norm of current diis error: 0.40643E-01
          max. resid. norm for Fia-block=  3.367D-03 for orbital     73a    beta 
          max. resid. fock norm         =  3.547D-03 for orbital     73a    beta 
          Delta Eig. =     0.0205441368 eV 
 
                                              current damping :  0.100
 ITERATION  ENERGY          1e-ENERGY        2e-ENERGY     RMS[dD(SAO)]   TOL
  82  -1182.6667443354    -5189.5404198     2208.8225653    0.502D-05 0.236D-12
          Norm of current diis error: 0.41055E-01
          max. resid. norm for Fia-block=  3.559D-03 for orbital     73a    beta 
          max. resid. fock norm         =  3.750D-03 for orbital     73a    beta 
          Delta Eig. =     0.0222610143 eV 
 
                                              current damping :  0.100
 ITERATION  ENERGY          1e-ENERGY        2e-ENERGY     RMS[dD(SAO)]   TOL
  83  -1182.6669779776    -5189.5472569     2208.8291688    0.542D-05 0.236D-12
          Norm of current diis error: 0.41444E-01
          max. resid. norm for Fia-block=  3.711D-03 for orbital     73a    beta 
          max. resid. fock norm         =  3.912D-03 for orbital     73a    beta 
          Delta Eig. =     0.0238284139 eV 
 
                                              current damping :  0.100
 ITERATION  ENERGY          1e-ENERGY        2e-ENERGY     RMS[dD(SAO)]   TOL
  84  -1182.6672244181    -5189.5545802     2208.8362456    0.577D-05 0.236D-12
          Norm of current diis error: 0.41799E-01
          max. resid. norm for Fia-block=  3.923D-03 for orbital     73a    beta 
          max. resid. fock norm         =  4.136D-03 for orbital     73a    beta 
          Delta Eig. =     0.0258541891 eV 
 
                                              current damping :  0.100
 ITERATION  ENERGY          1e-ENERGY        2e-ENERGY     RMS[dD(SAO)]   TOL
  85  -1182.6674878335    -5189.5625409     2208.8439429    0.623D-05 0.236D-12
          Norm of current diis error: 0.42117E-01
          max. resid. norm for Fia-block=  4.166D-03 for orbital     73a    beta 
          max. resid. fock norm         =  4.393D-03 for orbital     73a    beta 
 mo-orthogonalization: Cholesky decomposition
          Delta Eig. =     0.0282063786 eV 
 
                                              current damping :  0.100
 ITERATION  ENERGY          1e-ENERGY        2e-ENERGY     RMS[dD(SAO)]   TOL
  86  -1182.6677705878    -5189.5712428     2208.8523620    0.677D-05 0.187D-11
          Norm of current diis error: 0.42391E-01
          max. resid. norm for Fia-block=  4.442D-03 for orbital     73a    beta 
          max. resid. fock norm         =  4.685D-03 for orbital     73a    beta 
          Delta Eig. =     0.0309226117 eV 
 
                                              current damping :  0.100
 ITERATION  ENERGY          1e-ENERGY        2e-ENERGY     RMS[dD(SAO)]   TOL
  87  -1182.6680751973    -5189.5808066     2208.8616212    0.739D-05 0.118D-11
          Norm of current diis error: 0.42611E-01
          max. resid. norm for Fia-block=  4.804D-03 for orbital     73a    beta 
          max. resid. fock norm         =  5.069D-03 for orbital     73a    beta 
          Delta Eig. =     0.0344141724 eV 
 
                                              current damping :  0.100
 ITERATION  ENERGY          1e-ENERGY        2e-ENERGY     RMS[dD(SAO)]   TOL
  88  -1182.6684079676    -5189.5914908     2208.8719726    0.816D-05 0.771D-12
          Norm of current diis error: 0.42767E-01
          max. resid. norm for Fia-block=  5.257D-03 for orbital     73a    beta 
          max. resid. fock norm         =  5.548D-03 for orbital     73a    beta 
          Delta Eig. =     0.0388094321 eV 
 
                                              current damping :  0.100
 ITERATION  ENERGY          1e-ENERGY        2e-ENERGY     RMS[dD(SAO)]   TOL
  89  -1182.6687757005    -5189.6035977     2208.8837118    0.915D-05 0.583D-12
          Norm of current diis error: 0.42840E-01
          max. resid. norm for Fia-block=  5.864D-03 for orbital     73a    beta 
          max. resid. fock norm         =  6.192D-03 for orbital     73a    beta 
          Delta Eig. =     0.0446873533 eV 
 
                                              current damping :  0.100
 ITERATION  ENERGY          1e-ENERGY        2e-ENERGY     RMS[dD(SAO)]   TOL
  90  -1182.6691899183    -5189.6176369     2208.8973368    0.105D-04 0.475D-12
          Norm of current diis error: 0.42806E-01
          max. resid. norm for Fia-block=  6.704D-03 for orbital     73a    beta 
          max. resid. fock norm         =  7.081D-03 for orbital     73a    beta 
 mo-orthogonalization: Cholesky decomposition
          Delta Eig. =     0.0528545284 eV 
 
                                              current damping :  0.100
 ITERATION  ENERGY          1e-ENERGY        2e-ENERGY     RMS[dD(SAO)]   TOL
  91  -1182.6696680282    -5189.6344077     2208.9136295    0.123D-04 0.397D-12
          Norm of current diis error: 0.42625E-01
          max. resid. norm for Fia-block=  7.905D-03 for orbital     73a    beta 
          max. resid. fock norm         =  8.353D-03 for orbital     73a    beta 
          Delta Eig. =     0.0646843322 eV 
 
                                              current damping :  0.100
 ITERATION  ENERGY          1e-ENERGY        2e-ENERGY     RMS[dD(SAO)]   TOL
  92  -1182.6702372703    -5189.6552329     2208.9338854    0.150D-04 0.336D-12
          Norm of current diis error: 0.42236E-01
          max. resid. norm for Fia-block=  9.621D-03 for orbital     73a    beta 
          max. resid. fock norm         =  1.017D-02 for orbital     73a    beta 
          Delta Eig. =     0.0820914003 eV 
 
                                              current damping :  0.100
 ITERATION  ENERGY          1e-ENERGY        2e-ENERGY     RMS[dD(SAO)]   TOL
  93  -1182.6709369872    -5189.6822317     2208.9601845    0.190D-04 0.286D-12
          Norm of current diis error: 0.41539E-01
          max. resid. norm for Fia-block=  1.176D-02 for orbital     73a    beta 
          max. resid. fock norm         =  1.244D-02 for orbital     73a    beta 
          Delta Eig. =     0.1053854414 eV 
 
                                              current damping :  0.100
 ITERATION  ENERGY          1e-ENERGY        2e-ENERGY     RMS[dD(SAO)]   TOL
  94  -1182.6718022926    -5189.7179582     2208.9950457    0.242D-04 0.245D-12
          Norm of current diis error: 0.40445E-01
          max. resid. norm for Fia-block=  1.308D-02 for orbital     73a    beta 
          max. resid. fock norm         =  1.384D-02 for orbital     73a    beta 
          Delta Eig. =     0.1241867229 eV 
 
                                              current damping :  0.100
 ITERATION  ENERGY          1e-ENERGY        2e-ENERGY     RMS[dD(SAO)]   TOL
  95  -1182.6727856942    -5189.7617771     2209.0378813    0.284D-04 0.236D-12
          Norm of current diis error: 0.39119E-01
          max. resid. norm for Fia-block=  1.097D-02 for orbital     73a    beta 
          max. resid. fock norm         =  1.162D-02 for orbital     73a    beta 
 mo-orthogonalization: Cholesky decomposition
          Delta Eig. =     0.1113591247 eV 
 
                                              current damping :  0.100
 ITERATION  ENERGY          1e-ENERGY        2e-ENERGY     RMS[dD(SAO)]   TOL
  96  -1182.6736713385    -5189.8033510     2209.0785695    0.254D-04 0.236D-12
          Norm of current diis error: 0.38221E-01
          max. resid. norm for Fia-block=  7.982D-03 for orbital     74a    beta 
          max. resid. fock norm         =  8.325D-03 for orbital     74a    beta 
          Delta Eig. =     0.0669677599 eV 
 
                                              current damping :  0.100
 ITERATION  ENERGY          1e-ENERGY        2e-ENERGY     RMS[dD(SAO)]   TOL
  97  -1182.6742822627    -5189.8316994     2209.1063070    0.158D-04 0.236D-12
          Norm of current diis error: 0.38117E-01
          max. resid. norm for Fia-block=  5.445D-03 for orbital     74a    beta 
          max. resid. fock norm         =  5.678D-03 for orbital     74a    beta 
          Delta Eig. =     0.0296593281 eV 
 
                                              current damping :  0.100
 ITERATION  ENERGY          1e-ENERGY        2e-ENERGY     RMS[dD(SAO)]   TOL
  98  -1182.6746534233    -5189.8479722     2209.1222086    0.793D-05 0.236D-12
          Norm of current diis error: 0.38441E-01
          max. resid. norm for Fia-block=  3.311D-03 for orbital     74a    beta 
          max. resid. fock norm         =  3.453D-03 for orbital     74a    beta 
          Delta Eig. =     0.0176394796 eV 
 
                                              current damping :  0.100
 ITERATION  ENERGY          1e-ENERGY        2e-ENERGY     RMS[dD(SAO)]   TOL
  99  -1182.6748662308    -5189.8568839     2209.1309075    0.409D-05 0.237D-12
          Norm of current diis error: 0.38773E-01
          max. resid. norm for Fia-block=  2.288D-03 for orbital     74a    beta 
          max. resid. fock norm         =  2.388D-03 for orbital     74a    beta 
          Delta Eig. =     0.0120700415 eV 
 
                                              current damping :  0.100
 ITERATION  ENERGY          1e-ENERGY        2e-ENERGY     RMS[dD(SAO)]   TOL
 100  -1182.6750217604    -5189.8639513     2209.1378193    0.322D-05 0.236D-12
          Norm of current diis error: 0.38942E-01
          max. resid. norm for Fia-block=  3.120D-03 for orbital     74a    beta 
          max. resid. fock norm         =  3.257D-03 for orbital     74a    beta 
 mo-orthogonalization: Cholesky decomposition
          Delta Eig. =     0.0199853192 eV 
 
                                              current damping :  0.100
 ITERATION  ENERGY          1e-ENERGY        2e-ENERGY     RMS[dD(SAO)]   TOL
 101  -1182.6752472664    -5189.8749237     2209.1485663    0.519D-05 0.236D-12
          Norm of current diis error: 0.39046E-01
          max. resid. norm for Fia-block=  4.540D-03 for orbital     74a    beta 
          max. resid. fock norm         =  4.740D-03 for orbital     74a    beta 
          Delta Eig. =     0.0262213890 eV 
 
                                              current damping :  0.100
 ITERATION  ENERGY          1e-ENERGY        2e-ENERGY     RMS[dD(SAO)]   TOL
 102  -1182.6755676530    -5189.8902204     2209.1635425    0.699D-05 0.236D-12
          Norm of current diis error: 0.39230E-01
          max. resid. norm for Fia-block=  4.976D-03 for orbital     74a    beta 
          max. resid. fock norm         =  5.197D-03 for orbital     74a    beta 
          Delta Eig. =     0.0288681413 eV 
 
                                              current damping :  0.100
 ITERATION  ENERGY          1e-ENERGY        2e-ENERGY     RMS[dD(SAO)]   TOL
 103  -1182.6759102548    -5189.9062048     2209.1791844    0.703D-05 0.236D-12
          Norm of current diis error: 0.39464E-01
          max. resid. norm for Fia-block=  4.497D-03 for orbital     74a    beta 
          max. resid. fock norm         =  4.697D-03 for orbital     74a    beta 
          Delta Eig. =     0.0270660613 eV 
 
                                              current damping :  0.100
 ITERATION  ENERGY          1e-ENERGY        2e-ENERGY     RMS[dD(SAO)]   TOL
 104  -1182.6762154600    -5189.9202565     2209.1929308    0.599D-05 0.236D-12
          Norm of current diis error: 0.39672E-01
          max. resid. norm for Fia-block=  4.022D-03 for orbital     74a    beta 
          max. resid. fock norm         =  4.203D-03 for orbital     74a    beta 
          Delta Eig. =     0.0250007181 eV 
 
                                              current damping :  0.100
 ITERATION  ENERGY          1e-ENERGY        2e-ENERGY     RMS[dD(SAO)]   TOL
 105  -1182.6764871274    -5189.9327779     2209.2051806    0.526D-05 0.236D-12
          Norm of current diis error: 0.39826E-01
          max. resid. norm for Fia-block=  4.240D-03 for orbital     74a    beta 
          max. resid. fock norm         =  4.432D-03 for orbital     74a    beta 
 mo-orthogonalization: Cholesky decomposition
          Delta Eig. =     0.0269506541 eV 
 
                                              current damping :  0.100
 ITERATION  ENERGY          1e-ENERGY        2e-ENERGY     RMS[dD(SAO)]   TOL
 106  -1182.6767736535    -5189.9461919     2209.2183081    0.558D-05 0.236D-12
          Norm of current diis error: 0.39934E-01
          max. resid. norm for Fia-block=  4.962D-03 for orbital     74a    beta 
          max. resid. fock norm         =  5.188D-03 for orbital     74a    beta 
          Delta Eig. =     0.0323981461 eV 
 
                                              current damping :  0.100
 ITERATION  ENERGY          1e-ENERGY        2e-ENERGY     RMS[dD(SAO)]   TOL
 107  -1182.6771076369    -5189.9620435     2209.2338257    0.653D-05 0.187D-11
          Norm of current diis error: 0.39991E-01
          max. resid. norm for Fia-block=  5.703D-03 for orbital     74a    beta 
          max. resid. fock norm         =  5.965D-03 for orbital     74a    beta 
          Delta Eig. =     0.0385710969 eV 
 
                                              current damping :  0.100
 ITERATION  ENERGY          1e-ENERGY        2e-ENERGY     RMS[dD(SAO)]   TOL
 108  -1182.6774882902    -5189.9802896     2209.2516912    0.755D-05 0.118D-11
          Norm of current diis error: 0.39958E-01
          max. resid. norm for Fia-block=  6.500D-03 for orbital     74a    beta 
          max. resid. fock norm         =  6.803D-03 for orbital     74a    beta 
          Delta Eig. =     0.0456463436 eV 
 
                                              current damping :  0.100
 ITERATION  ENERGY          1e-ENERGY        2e-ENERGY     RMS[dD(SAO)]   TOL
 109  -1182.6779173022    -5190.0011585     2209.2721310    0.852D-05 0.764D-12
          Norm of current diis error: 0.39774E-01
          max. resid. norm for Fia-block=  7.849D-03 for orbital     74a    beta 
          max. resid. fock norm         =  8.219D-03 for orbital     74a    beta 
          Delta Eig. =     0.0573228701 eV 
 
                                              current damping :  0.100
 ITERATION  ENERGY          1e-ENERGY        2e-ENERGY     RMS[dD(SAO)]   TOL
 110  -1182.6784271194    -5190.0266154     2209.2970781    0.104D-04 0.568D-12
          Norm of current diis error: 0.39319E-01
          max. resid. norm for Fia-block=  1.071D-02 for orbital     74a    beta 
          max. resid. fock norm         =  1.122D-02 for orbital     74a    beta 
 mo-orthogonalization: Cholesky decomposition
          Delta Eig. =     0.0817555600 eV 
 
                                              current damping :  0.100
 ITERATION  ENERGY          1e-ENERGY        2e-ENERGY     RMS[dD(SAO)]   TOL
 111  -1182.6791033364    -5190.0620222     2209.3318086    0.144D-04 0.448D-12
          Norm of current diis error: 0.38248E-01
          max. resid. norm for Fia-block=  1.763D-02 for orbital     74a    beta 
          max. resid. fock norm         =  1.850D-02 for orbital     74a    beta 
          Delta Eig. =     0.1425559075 eV 
 
                                              current damping :  0.100
 ITERATION  ENERGY          1e-ENERGY        2e-ENERGY     RMS[dD(SAO)]   TOL
 112  -1182.6801457753    -5190.1223950     2209.3911390    0.246D-04 0.351D-12
          Norm of current diis error: 0.35296E-01
          max. resid. norm for Fia-block=  3.423D-02 for orbital     74a    beta 
          max. resid. fock norm         =  3.602D-02 for orbital     74a    beta 
          Delta Eig. =     0.3031105949 eV 
 
                                              current damping :  0.100
 ITERATION  ENERGY          1e-ENERGY        2e-ENERGY     RMS[dD(SAO)]   TOL
 113  -1182.6817606786    -5190.2465307     2209.5136598    0.511D-04 0.265D-12
          Norm of current diis error: 0.25848E-01
          max. resid. norm for Fia-block=  2.863D-02 for orbital     74a    beta 
          max. resid. fock norm         =  3.032D-02 for orbital     74a    beta 
          Delta Eig. =     0.3237741915 eV 
 
                                              current damping :  0.100
 ITERATION  ENERGY          1e-ENERGY        2e-ENERGY     RMS[dD(SAO)]   TOL
 114  -1182.6825282938    -5190.3546475     2209.6210091    0.498D-04 0.236D-12
          Norm of current diis error: 0.15058E-01
          max. resid. norm for Fia-block=  2.337D-03 for orbital     50a    beta 
          max. resid. fock norm         =  2.346D-03 for orbital     50a    beta 
          Delta Eig. =     0.0367960744 eV 
 
                                              current damping :  0.100
 ITERATION  ENERGY          1e-ENERGY        2e-ENERGY     RMS[dD(SAO)]   TOL
 115  -1182.6825763543    -5190.3551410     2209.6214545    0.818D-05 0.243D-12
          Norm of current diis error: 0.99692E-02
          max. resid. norm for Fia-block=  7.851D-03 for orbital     74a    beta 
          max. resid. fock norm         =  8.404D-03 for orbital     74a    beta 
 mo-orthogonalization: Cholesky decomposition
          Delta Eig. =     0.0871252703 eV 
 
                                              current damping :  0.100
 ITERATION  ENERGY          1e-ENERGY        2e-ENERGY     RMS[dD(SAO)]   TOL
 116  -1182.6826525946    -5190.3942657     2209.6605029    0.194D-04 0.236D-12
          Norm of current diis error: 0.58792E-02
          max. resid. norm for Fia-block=  1.234D-03 for orbital     49a    alpha
          max. resid. fock norm         =  1.466D-03 for orbital     49a    alpha
          Delta Eig. =     0.0379521664 eV 
 
                                              current damping :  0.150
 ITERATION  ENERGY          1e-ENERGY        2e-ENERGY     RMS[dD(SAO)]   TOL
 117  -1182.6826604763    -5190.3897129     2209.6559423    0.446D-05 0.236D-12
          Norm of current diis error: 0.38014E-02
          max. resid. norm for Fia-block=  8.457D-04 for orbital     75a    alpha
          max. resid. fock norm         =  9.249D-04 for orbital     84a    alpha
          Delta Eig. =     0.0154546017 eV 
 
                                              current damping :  0.200
 ITERATION  ENERGY          1e-ENERGY        2e-ENERGY     RMS[dD(SAO)]   TOL
 118  -1182.6826652546    -5190.3927063     2209.6589309    0.255D-05 0.236D-12
          Norm of current diis error: 0.31533E-02
          max. resid. norm for Fia-block=  6.563D-04 for orbital     75a    alpha
          max. resid. fock norm         =  6.788D-04 for orbital     75a    alpha
          Delta Eig. =     0.0168099684 eV 
 
                                              current damping :  0.100
 ITERATION  ENERGY          1e-ENERGY        2e-ENERGY     RMS[dD(SAO)]   TOL
 119  -1182.6826687783    -5190.3928046     2209.6590257    0.233D-05 0.237D-12
          Norm of current diis error: 0.25083E-02
          max. resid. norm for Fia-block=  8.413D-04 for orbital     75a    alpha
          max. resid. fock norm         =  8.691D-04 for orbital     75a    alpha
          Delta Eig. =     0.0095529580 eV 
 
                                              current damping :  0.150
 ITERATION  ENERGY          1e-ENERGY        2e-ENERGY     RMS[dD(SAO)]   TOL
 120  -1182.6826724706    -5190.3920717     2209.6582890    0.287D-05 0.239D-12
          Norm of current diis error: 0.17931E-02
          max. resid. norm for Fia-block=  9.244D-04 for orbital     75a    alpha
          max. resid. fock norm         =  9.530D-04 for orbital     75a    alpha
 mo-orthogonalization: Cholesky decomposition
          Delta Eig. =     0.0135594805 eV 
 
                                              current damping :  0.100
 ITERATION  ENERGY          1e-ENERGY        2e-ENERGY     RMS[dD(SAO)]   TOL
 121  -1182.6826748746    -5190.3917559     2209.6579709    0.296D-05 0.242D-12
          Norm of current diis error: 0.11258E-02
          max. resid. norm for Fia-block=  5.202D-04 for orbital     75a    alpha
          max. resid. fock norm         =  5.364D-04 for orbital     75a    alpha
          Delta Eig. =     0.0053495051 eV 
 
                                              current damping :  0.100
 ITERATION  ENERGY          1e-ENERGY        2e-ENERGY     RMS[dD(SAO)]   TOL
 122  -1182.6826756711    -5190.3914021     2209.6576162    0.163D-05 0.244D-12
          Norm of current diis error: 0.84577E-03
          max. resid. norm for Fia-block=  2.126D-04 for orbital     75a    alpha
          max. resid. fock norm         =  2.350D-04 for orbital     49a    beta 
          Delta Eig. =     0.0039522479 eV 
 
                                              current damping :  0.100
 ITERATION  ENERGY          1e-ENERGY        2e-ENERGY     RMS[dD(SAO)]   TOL
 123  -1182.6826759286    -5190.3911965     2209.6574104    0.648D-06 0.278D-12
          Norm of current diis error: 0.75542E-03
          max. resid. norm for Fia-block=  1.370D-04 for orbital     70a    alpha
          max. resid. fock norm         =  1.496D-04 for orbital     82a    alpha
          Delta Eig. =     0.0012247590 eV 
 
                                              current damping :  0.100
 ITERATION  ENERGY          1e-ENERGY        2e-ENERGY     RMS[dD(SAO)]   TOL
 124  -1182.6826761338    -5190.3910064     2209.6572201    0.477D-06 0.532D-12
          Norm of current diis error: 0.69223E-03
          max. resid. norm for Fia-block=  1.801D-04 for orbital     70a    alpha
          max. resid. fock norm         =  1.963D-04 for orbital     82a    alpha
          Delta Eig. =     0.0015787131 eV 
 
                                              current damping :  0.100
 ITERATION  ENERGY          1e-ENERGY        2e-ENERGY     RMS[dD(SAO)]   TOL
 125  -1182.6826763656    -5190.3908230     2209.6570365    0.402D-06 0.534D-12
          Norm of current diis error: 0.63273E-03
          max. resid. norm for Fia-block=  2.309D-04 for orbital     70a    alpha
          max. resid. fock norm         =  2.515D-04 for orbital     82a    alpha
 mo-orthogonalization: Cholesky decomposition
          Delta Eig. =     0.0013372466 eV 
 
                                              current damping :  0.100
 ITERATION  ENERGY          1e-ENERGY        2e-ENERGY     RMS[dD(SAO)]   TOL
 126  -1182.6826766027    -5190.3905383     2209.6567515    0.286D-06 0.534D-12
          Norm of current diis error: 0.55718E-03
          max. resid. norm for Fia-block=  3.311D-04 for orbital     70a    alpha
          max. resid. fock norm         =  3.604D-04 for orbital     82a    alpha
          Delta Eig. =     0.0021749472 eV 
 
                                              current damping :  0.100
 ITERATION  ENERGY          1e-ENERGY        2e-ENERGY     RMS[dD(SAO)]   TOL
 127  -1182.6826769020    -5190.3902491     2209.6564620    0.391D-06 0.534D-12
          Norm of current diis error: 0.47695E-03
          max. resid. norm for Fia-block=  3.386D-04 for orbital     70a    alpha
          max. resid. fock norm         =  3.688D-04 for orbital     82a    alpha
          Delta Eig. =     0.0018215986 eV 
 
                                              current damping :  0.100
 ITERATION  ENERGY          1e-ENERGY        2e-ENERGY     RMS[dD(SAO)]   TOL
 128  -1182.6826771327    -5190.3899040     2209.6561167    0.302D-06 0.187D-11
          Norm of current diis error: 0.39448E-03
          max. resid. norm for Fia-block=  2.924D-04 for orbital     70a    alpha
          max. resid. fock norm         =  3.184D-04 for orbital     82a    alpha
          Delta Eig. =     0.0019437907 eV 
 
                                              current damping :  0.100
 ITERATION  ENERGY          1e-ENERGY        2e-ENERGY     RMS[dD(SAO)]   TOL
 129  -1182.6826772869    -5190.3897438     2209.6559563    0.271D-06 0.118D-11
          Norm of current diis error: 0.33587E-03
          max. resid. norm for Fia-block=  2.405D-04 for orbital     70a    alpha
          max. resid. fock norm         =  2.624D-04 for orbital     82a    alpha
          Delta Eig. =     0.0013106671 eV 
 
                                              current damping :  0.100
 ITERATION  ENERGY          1e-ENERGY        2e-ENERGY     RMS[dD(SAO)]   TOL
 130  -1182.6826773832    -5190.3895717     2209.6557841    0.179D-06 0.829D-12
          Norm of current diis error: 0.27848E-03
          max. resid. norm for Fia-block=  2.117D-04 for orbital     70a    alpha
          max. resid. fock norm         =  2.313D-04 for orbital     82a    alpha
 mo-orthogonalization: Cholesky decomposition
          Delta Eig. =     0.0014214784 eV 
 
                                              current damping :  0.100
 ITERATION  ENERGY          1e-ENERGY        2e-ENERGY     RMS[dD(SAO)]   TOL
 131  -1182.6826774484    -5190.3895511     2209.6557634    0.184D-06 0.652D-12
          Norm of current diis error: 0.22803E-03
          max. resid. norm for Fia-block=  1.967D-04 for orbital     70a    alpha
          max. resid. fock norm         =  2.155D-04 for orbital     82a    alpha
          Delta Eig. =     0.0010710809 eV 
 
                                              current damping :  0.100
 ITERATION  ENERGY          1e-ENERGY        2e-ENERGY     RMS[dD(SAO)]   TOL
 132  -1182.6826774881    -5190.3894839     2209.6556962    0.180D-06 0.549D-12
          Norm of current diis error: 0.17638E-03
          max. resid. norm for Fia-block=  1.449D-04 for orbital     70a    alpha
          max. resid. fock norm         =  1.593D-04 for orbital     82a    alpha
          Delta Eig. =     0.0010489566 eV 

 ENERGY & DENSITY CONVERGED !

 
                                              current damping :  0.150
 ITERATION  ENERGY          1e-ENERGY        2e-ENERGY     RMS[dD(SAO)]   TOL
 133  -1182.6826775061    -5190.3895410     2209.6557533    0.167D-06 0.533D-12
          max. resid. norm for Fia-block=  1.545D-05 for orbital     49a    beta 
          max. resid. fock norm         =  1.675D-05 for orbital     49a    beta 

 convergence criteria satisfied after   133 iterations


                  ------------------------------------------ 
                 |  total energy      =  -1182.68267750610  |
                  ------------------------------------------ 
                 :  kinetic energy    =   1182.09094894796  :
                 :  potential energy  =  -2364.77362645406  :
                 :  virial theorem    =      1.99949967259  :
                 :  wavefunction norm =      1.00000000000  :
                  .......................................... 


 orbitals $uhfmo_beta  will be written to file beta

 orbitals $uhfmo_alpha  will be written to file alpha
 
 alpha: 

    irrep                 77a         78a         79a         80a         81a   
 eigenvalues H         -0.45071    -0.41917    -0.40961    -0.40883    -0.36070
            eV         -12.2645    -11.4064    -11.1463    -11.1250     -9.8152
 occupation              1.0000      1.0000      1.0000      1.0000      1.0000 

    irrep                 82a         83a         84a         85a         86a   
 eigenvalues H          0.02275     0.05634     0.07421     0.11109     0.11689
            eV           0.6191      1.5332      2.0193      3.0230      3.1807
 
 beta:  

    irrep                 75a         76a         77a         78a         79a   
 eigenvalues H         -0.45207    -0.44090    -0.41648    -0.40778    -0.36999
            eV         -12.3017    -11.9975    -11.3331    -11.0963    -10.0679
 occupation              1.0000      1.0000      1.0000      1.0000      1.0000 

    irrep                 80a         81a         82a         83a         84a   
 eigenvalues H          0.00415     0.01928     0.03327     0.07920     0.10473
            eV           0.1128      0.5247      0.9053      2.1550      2.8498
 

                                             _ _ _ 
  IRREP     alpha occ.     beta occ.      tr(D*D-D)


 a         81.00000000    79.00000000    -1.72458373

   -------------------------------------------------

   sum     81.00000000    79.00000000    -1.72458373

 <S*S>     4.44916745

 
 
 
 ==============================================================================
                           electrostatic moments
 ==============================================================================

 reference point for electrostatic moments:    0.00000   0.00000   0.00000

 
              nuc           elec       ->  total
 ------------------------------------------------------------------------------
                          charge      
 ------------------------------------------------------------------------------
         160.000000    -160.000000      -0.000000
 a-b                                     2.000000
 
 ------------------------------------------------------------------------------
                       dipole moment  
 ------------------------------------------------------------------------------
   x    -292.992248     292.411172      -0.581076
   y     439.577801    -440.232344      -0.654543
   z     247.659698    -247.380546       0.279152
 
   | dipole moment | =     0.9187 a.u. =     2.3351 debye 
 
 ------------------------------------------------------------------------------
                     quadrupole moment
 ------------------------------------------------------------------------------
  xx    1739.796384   -1840.404443    -100.608059
  yy    7443.903808   -7559.876828    -115.973019
  zz    1011.690755   -1110.278166     -98.587410
  xy    -177.185456     176.985575      -0.199880
  xz   -1249.219536    1254.347986       5.128450
  yz     814.431861    -818.297100      -3.865239
 
     1/3  trace=    -105.056163
     anisotropy=      19.875998
 
 ==============================================================================
 


    ------------------------------------------------------------------------
         total  cpu-time :   4 days  6 hours 39 minutes and  4 seconds
         total wall-time :  6 hours 42 minutes and 59 seconds
    ------------------------------------------------------------------------

   ****  dscf : all done  ****


    2019-03-11 00:46:27.551 

