           Doing BLAS/Lapack in the master proc. with  8 CPUs.
           SMPCPUS    set: Shared-memory Parallelization with   8 CPUs.

           SMP Parallelization Reference:
           C. van Wullen, J. Comput. Chem. 32 (2011) 1195--1201
 operating system is UNIX !

 ridft (c-18-133.gp.local) : TURBOMOLE V7.2 ( 21454 ) 4 Oct 2017 at 12:48:15
 Copyright (C) 2017 TURBOMOLE GmbH, Karlsruhe


    2018-04-24 21:15:36.447 



                                  r i d f t

                        DFT program with RI approximation 
                                for coulomb part 




                                                 
                                 References:     
                                                 
          TURBOMOLE:                             
              R. Ahlrichs, M. Baer, M. Haeser, H. Horn, and
              C. Koelmel
              Electronic structure calculations on workstation
              computers: the program system TURBOMOLE
              Chem. Phys. Lett. 162: 165 (1989)
          Density Functional:                              
              O. Treutler and R. Ahlrichs                      
              Efficient Molecular Numerical Integration Schemes
              J. Chem. Phys. 102: 346 (1995)                   
          Parallel Version:                                
              Performance of parallel TURBOMOLE for Density    
              Functional Calculations                          
              M. v. Arnim and R. Ahlrichs                      
              J. Comp. Chem. 19: 1746 (1998)                   
          RI-J Method:                                     
              Auxiliary Basis Sets to approximate Coulomb      
              Potentials                                       
              Chem. Phys. Lett. 240: 283 (1995)                
              K. Eichkorn, O. Treutler, H. Oehm, M. Haeser     
              and R. Ahlrichs                                  
              Chem. Phys. Lett. 242: 652 (1995)                
                                                           
              Auxiliary Basis Sets for Main Row Atoms and their
              Use to approximate Coulomb Potentials            
              K. Eichkorn, F. Weigend, O. Treutler and         
              R. Ahlrichs                                      
              Theo. Chem. Acc. 97: 119 (1997)                   
                                                           
              Accurate Coulomb-fitting basis sets for H to Rn 
              F. Weigend                                        
              Phys. Chem. Chem. Phys. 8: 1057 (2006)            
                                                           
          Multipole accelerated RI-J (MARI-J):             
              Fast evaluation of the Coulomb potential for     
              electron densities using multipole accelerated   
              resolution of identity approximation             
              M. Sierka, A. Hogekamp and R. Ahlrichs           
              J. Chem. Phys. 118: 9136 (2003)                  
          RI-JK Method:                                     
              A fully direct RI-HF algorithm: Implementation,
              optimised auxiliary basis sets, demonstration of
              accuracy and efficiency                         
              F. Weigend                                      
              Phys. Chem. Chem. Phys. 4: 4285 (2002)           
          Two-component HF and DFT with spin-orbit coupling:  
              Self-consistent treatment of spin-orbit         
              interactions with efficient Hartree-Fock and    
              density functional methods                      
              M. K. Armbruster, F. Weigend, C. van Wüllen and 
              W. Klopper                                      
              Phys. Chem. Chem. Phys. 10: 1748 (2008)         
          Relativistic all-electron 2c calculations           
              An efficient implementation of two-component    
              relativistic exact-decoupling methods for large 
              molecules                                       
              D. Peng, N. Middendorf, F. Weigend, M. Reiher   
              J. Chem. Phys. 138, 184105 (2013)               
                                         




              +--------------------------------------------------+
              |      general information about current run       |
              +--------------------------------------------------+

 

 DENSITY CONVERGENCE CHECK SWITCHED ON !
 SCF CONVERGENCE IF RMS(delta[D]) <     0.1000000000E-06

 TPSS meta-GGA functional
 exchange:    LDA + TPSS
 correlation: LDA (PW) + TPSS
 A DFT calculation using the RI-J approximation will be carried out.
 Allocatable memory for RI due to $ricore (MB):                   500


              +--------------------------------------------------+
              | Atomic coordinate, charge and isotop information |
              +--------------------------------------------------+

                    atomic coordinates            atom    charge  isotop
         -1.33588556    0.08660684    0.01206799    o      8.000     0
          0.50195589    0.13551253    0.00253090    h      1.000     0
         -2.03461270   -2.48294105    0.00305055    c      6.000     0
         -4.08733321   -2.57606667    0.01108405    h      1.000     0
         -1.36703912   -3.48588648   -1.67759209    h      1.000     0
         -1.35319467   -3.50132394    1.66877893    h      1.000     0
          4.15980206   -0.06882548   -0.00630864    n      7.000     0
          4.86017151    0.89073306    1.49249436    h      1.000     0
          4.86040449    0.80864725   -1.55448347    h      1.000     0
          5.06262237   -2.68804910    0.06448278    c      6.000     0
          4.32206736   -3.69721062   -1.56482347    h      1.000     0
          7.11620884   -2.88974934    0.07021714    h      1.000     0
          4.32161087   -3.60783582    1.74564389    h      1.000     0
 
       center of nuclear mass  :    1.46733907   -1.26392650    0.01761114
       center of nuclear charge:    1.54929000   -1.35383457    0.01809538

              +--------------------------------------------------+
              |               basis set information              |
              +--------------------------------------------------+

              we will work with the 1s 3p 5d 7f 9g ... basis set
              ...i.e. with spherical basis functions...

   type   atoms  prim   cont   basis
   ---------------------------------------------------------------------------
    o        1     50     30   cc-pVTZ   [4s3p2d1f|18s5p2d1f]
    h        9     16     14   cc-pVTZ   [3s2p1d|5s2p1d]
    c        2     50     30   cc-pVTZ   [4s3p2d1f|18s5p2d1f]
    n        1     50     30   cc-pVTZ   [4s3p2d1f|18s5p2d1f]
   ---------------------------------------------------------------------------
   total:   13    344    246
   ---------------------------------------------------------------------------

   total number of primitive shells          :   86
   total number of contracted shells         :   94
   total number of cartesian basis functions :  275
   total number of SCF-basis functions       :  246


 integral neglect threshold       :  0.12E-12
 integral storage threshold THIZE :  0.10E-04
 integral storage threshold THIME :         5

 RI-J AUXILIARY BASIS SET information:

              we will work with the 1s 3p 5d 7f 9g ... basis set
              ...i.e. with spherical basis functions...

   type   atoms  prim   cont   basis
   ---------------------------------------------------------------------------
    o        1     70     49   cc-pVTZ   [6s4p3d1f1g|12s5p4d2f1g]
    h        9     16     11   cc-pVTZ   [3s1p1d|5s2p1d]
    c        2     70     49   cc-pVTZ   [6s4p3d1f1g|12s5p4d2f1g]
    n        1     70     49   cc-pVTZ   [6s4p3d1f1g|12s5p4d2f1g]
   ---------------------------------------------------------------------------
   total:   13    424    295
   ---------------------------------------------------------------------------

   total number of primitive shells          :   80
   total number of contracted shells         :  105
   total number of cartesian basis functions :  352
   total number of SCF-basis functions       :  295


 symmetry group of the molecule :   c1 

 the group has the following generators :
   c1(z)

    1 symmetry operations found

 there are 1 real representations :   a   

 maximum number of shells which are related by symmetry :  1


    mo occupation :
   irrep   mo's   occupied
    a      246       18
 
 number of basis functions   :                    246
 number of occupied orbitals :                     18
 
  
           ------------------
           density functional
           ------------------
 TPSS meta-GGA functional
 exchange:    LDA + TPSS
 correlation: LDA (PW) + TPSS

 iterations will be done with small grid
  
 spherical integration : Lebedev's spherical grid
 spherical gridsize    :                     5
    i.e. gridpoints    :                   590
 value for diffuse not defined
 radial integration    : Chebyshev 2nd kind (scaling 3)
 radial gridsize       :                     8
 integration cells     :                    13
 partition function    : becke
 partition sharpness   :                     3
  

 biggest AO integral is expected to be     4.866064444
  
           ------------------------
               RI-J - INFORMATION
           ------------------------
 Contributions to RI integral batches: 
  neglected integral batches:                   341
  direct contribution:                            0
  memory contribution:                  4124
 Memory core needed for (P|Q) and Cholesky      1 MByte
 Memory core minimum needed except of (P|Q)     1 MByte
 Total minimum memory core needed (sum)         1 MByte
  
 ****************************************
 Memory allocated for RI-J    94 MByte
 ****************************************
                                            

          ------------------------
          nuclear repulsion energy  :   131.816176448    
          ------------------------


         -----------------
         -S,T+V- integrals
         -----------------

 1e-integrals will be neglected if expon. factor < 0.121526E-13
 Difference densities >>NOT<< switched on in parallel ridft!

 DIIS switched on: error vector is FDS-SDF
 Max. Iterations for DIIS is     :   4
 DIIS matrix (see manual) 
    Scaling factor of diagonals  :  1.200
    threshold for scaling factor :  0.000

 scf convergence criterion : increment of total energy < .1000000D-08
                  and increment of one-electron energy < .1000000D-05

  MOs are in ASCII format !


 automatic virtual orbital shift switched on 
      shift if e(lumo)-e(homo) < 0.10000000    


 reading orbital data $scfmo  from file mos
 orbital characterization : expanded
 mo provided and orthogonalized by Cholesky decomposition

 DSCF restart information will be dumped onto file mos


 Starting SCF iterations

          Overall gridpoints after grid construction =         57126

 ITERATION  ENERGY          1e-ENERGY        2e-ENERGY     RMS[dD(SAO)]   TOL
   1  -210.88222423512    -545.22056116     202.52216048    0.000D+00 0.121D-12
                            Exc = -29.4135008784     Coul =  231.935661360    
                              N = 36.000030453    
                            current damping = 0.700
 
          max. resid. norm for Fia-block=  2.955D-01 for orbital      1a         
          max. resid. fock norm         =  4.488D+00 for orbital    243a         

 ITERATION  ENERGY          1e-ENERGY        2e-ENERGY     RMS[dD(SAO)]   TOL
   2  -211.53399878090    -546.39100598     203.04083075    0.279D-02 0.121D-12
                            Exc = -29.5044917952     Coul =  232.545322546    
                              N = 36.000026703    
                            current damping = 0.650
 
          Norm of current diis error:  1.6983    
          max. resid. norm for Fia-block=  1.340D-01 for orbital      1a         
          max. resid. fock norm         =  1.934D-01 for orbital    243a         

 ITERATION  ENERGY          1e-ENERGY        2e-ENERGY     RMS[dD(SAO)]   TOL
   3  -211.65671965686    -547.49109483     204.01819872    0.180D-02 0.121D-12
                            Exc = -29.7083425345     Coul =  233.726541256    
                              N = 36.000023268    
                            current damping = 0.550
 
          Norm of current diis error: 0.81615    
          max. resid. norm for Fia-block=  5.401D-02 for orbital      1a         
          max. resid. fock norm         =  5.651D-02 for orbital      1a         

 ITERATION  ENERGY          1e-ENERGY        2e-ENERGY     RMS[dD(SAO)]   TOL
   4  -211.69407269354    -547.34481810     203.83456896    0.140D-02 0.121D-12
                            Exc = -29.7276893600     Coul =  233.562258322    
                              N = 36.000023546    
                            current damping = 0.600
 
          Norm of current diis error: 0.31370    
          max. resid. norm for Fia-block=  2.348D-02 for orbital      5a         
          max. resid. fock norm         =  3.348D-02 for orbital    198a         

 ITERATION  ENERGY          1e-ENERGY        2e-ENERGY     RMS[dD(SAO)]   TOL
   5  -211.69992493618    -547.81583156     204.29973017    0.590D-03 0.121D-12
                            Exc = -29.8009585264     Coul =  234.100688698    
                              N = 36.000022849    
                            current damping = 0.650
 
          Norm of current diis error: 0.13906    
          max. resid. norm for Fia-block=  9.630D-03 for orbital     16a         
          max. resid. fock norm         =  1.019D-02 for orbital     16a         
          mo-orthogonalization: Cholesky decomposition

 ITERATION  ENERGY          1e-ENERGY        2e-ENERGY     RMS[dD(SAO)]   TOL
   6  -211.70116400399    -547.72346123     204.20612078    0.350D-03 0.121D-12
                            Exc = -29.7968935499     Coul =  234.003014330    
                              N = 36.000023203    
                            current damping = 0.700
 
          Norm of current diis error: 0.47626E-01
          max. resid. norm for Fia-block=  3.432D-03 for orbital     17a         
          max. resid. fock norm         =  4.621D-03 for orbital    238a         

 ITERATION  ENERGY          1e-ENERGY        2e-ENERGY     RMS[dD(SAO)]   TOL
   7  -211.70132652948    -547.73117491     204.21367193    0.127D-03 0.121D-12
                            Exc = -29.8007869474     Coul =  234.014458881    
                              N = 36.000023143    
                            current damping = 0.750
 
          Norm of current diis error: 0.20339E-01
          max. resid. norm for Fia-block=  1.427D-03 for orbital      7a         
          max. resid. fock norm         =  1.696D-03 for orbital      7a         

 ITERATION  ENERGY          1e-ENERGY        2e-ENERGY     RMS[dD(SAO)]   TOL
   8  -211.70135381328    -547.75708503     204.23955477    0.475D-04 0.121D-12
                            Exc = -29.8045738343     Coul =  234.044128608    
                              N = 36.000023172    
                            current damping = 0.600
 
          Norm of current diis error: 0.82500E-02
          max. resid. norm for Fia-block=  6.438D-04 for orbital     17a         
          max. resid. fock norm         =  7.204D-04 for orbital     16a         

 ITERATION  ENERGY          1e-ENERGY        2e-ENERGY     RMS[dD(SAO)]   TOL
   9  -211.70135936549    -547.75349280     204.23595698    0.268D-04 0.121D-12
                            Exc = -29.8047797765     Coul =  234.040736760    
                              N = 36.000023166    
                            current damping = 0.650
 
          Norm of current diis error: 0.31839E-02
          max. resid. norm for Fia-block=  2.210D-04 for orbital      7a         
          max. resid. fock norm         =  2.462D-04 for orbital      7a         

 ITERATION  ENERGY          1e-ENERGY        2e-ENERGY     RMS[dD(SAO)]   TOL
  10  -211.70136010892    -547.75494577     204.23740922    0.951D-05 0.121D-12
                            Exc = -29.8050871262     Coul =  234.042496343    
                              N = 36.000023173    
                            current damping = 0.700
 
          Norm of current diis error: 0.13257E-02
          max. resid. norm for Fia-block=  1.077D-04 for orbital      5a         
          max. resid. fock norm         =  1.779D-04 for orbital    238a         
          mo-orthogonalization: Cholesky decomposition

 ITERATION  ENERGY          1e-ENERGY        2e-ENERGY     RMS[dD(SAO)]   TOL
  11  -211.70136022386    -547.75648933     204.23895266    0.323D-05 0.121D-12
                            Exc = -29.8053499357     Coul =  234.044302591    
                              N = 36.000023169    
                            current damping = 0.550
 
          Norm of current diis error: 0.61874E-03
          max. resid. norm for Fia-block=  4.299D-05 for orbital     16a         
          max. resid. fock norm         =  4.536D-05 for orbital     16a         

 ITERATION  ENERGY          1e-ENERGY        2e-ENERGY     RMS[dD(SAO)]   TOL
  12  -211.70136025113    -547.75618665     204.23864995    0.189D-05 0.121D-12
                            Exc = -29.8053386220     Coul =  234.043988577    
                              N = 36.000023171    
                            current damping = 0.600
 
          Norm of current diis error: 0.18026E-03
          max. resid. norm for Fia-block=  1.330D-05 for orbital     17a         
          max. resid. fock norm         =  1.821D-05 for orbital    219a         

 ITERATION  ENERGY          1e-ENERGY        2e-ENERGY     RMS[dD(SAO)]   TOL
  13  -211.70136025366    -547.75621168     204.23867498    0.576D-06 0.121D-12
                            Exc = -29.8053534656     Coul =  234.044028444    
                              N = 36.000023171    
                            current damping = 0.650
 
          Norm of current diis error: 0.77607E-04
          max. resid. norm for Fia-block=  5.556D-06 for orbital      6a         
          max. resid. fock norm         =  7.534D-06 for orbital    208a         

 ITERATION  ENERGY          1e-ENERGY        2e-ENERGY     RMS[dD(SAO)]   TOL
  14  -211.70136025404    -547.75632061     204.23878390    0.181D-06 0.121D-12
                            Exc = -29.8053688839     Coul =  234.044152788    
                              N = 36.000023171    
                            current damping = 0.500
 
          Norm of current diis error: 0.29182E-04
          max. resid. norm for Fia-block=  2.774D-06 for orbital     17a         
          max. resid. fock norm         =  3.149D-06 for orbital    239a         

 ITERATION  ENERGY          1e-ENERGY        2e-ENERGY     RMS[dD(SAO)]   TOL
  15  -211.70136025410    -547.75629094     204.23875424    0.104D-06 0.121D-12
                            Exc = -29.8053675601     Coul =  234.044121801    
                              N = 36.000023171    
                            current damping = 0.550
 
          Norm of current diis error: 0.14512E-04
          max. resid. norm for Fia-block=  8.624D-07 for orbital      9a         
          max. resid. fock norm         =  1.147D-06 for orbital    134a         
          mo-orthogonalization: Cholesky decomposition

 ENERGY & DENSITY CONVERGED !

          Overall gridpoints after grid construction =        191955

 ITERATION  ENERGY          1e-ENERGY        2e-ENERGY     RMS[dD(SAO)]   TOL
  16  -211.70129671696    -547.75629589     204.23882272    0.347D-07 0.121D-12
                            Exc = -29.8053048698     Coul =  234.044127592    
                              N = 35.999995322    
                            current damping = 0.600
 
          Norm of current diis error: 0.61897E-05
          max. resid. norm for Fia-block=  5.005D-07 for orbital      5a         
          max. resid. fock norm         =  7.608D-07 for orbital    238a         

 End of SCF iterations

   convergence criteria satisfied after    16 iterations


                  ------------------------------------------ 
                 |  total energy      =   -211.70129671696  |
                  ------------------------------------------ 
                 :  kinetic energy    =    210.61810222772  :
                 :  potential energy  =   -422.31939894468  :
                 :  virial theorem    =      1.99488338283  :
                 :  wavefunction norm =      1.00000000000  :
                  .......................................... 


 <geterg> : there is no data group $energy 


 <skperg> : $end is missing 


 orbitals $scfmo  will be written to file mos

    irrep                 14a         15a         16a         17a         18a   
 eigenvalues H         -0.35529    -0.34966    -0.27202    -0.22545    -0.19551
            eV          -9.6681     -9.5148     -7.4020     -6.1348     -5.3202
 occupation              2.0000      2.0000      2.0000      2.0000      2.0000 

    irrep                 19a         20a         21a         22a         23a   
 eigenvalues H          0.00794     0.04340     0.06550     0.06889     0.09112
            eV           0.2160      1.1809      1.7824      1.8745      2.4796
 
 
 
 
 ==============================================================================
                           electrostatic moments
 ==============================================================================

 reference point for electrostatic moments:    0.00000   0.00000   0.00000

 
              nuc           elec       ->  total
 ------------------------------------------------------------------------------
                          charge      
 ------------------------------------------------------------------------------
          36.000000     -36.000000      -0.000000
 
 ------------------------------------------------------------------------------
                       dipole moment  
 ------------------------------------------------------------------------------
   x      55.774440     -54.397146       1.377294
   y     -48.738045      48.364889      -0.373156
   z       0.651434      -0.655916      -0.004482
 
   | dipole moment | =     1.4270 a.u. =     3.6270 debye 
 
 ------------------------------------------------------------------------------
                     quadrupole moment
 ------------------------------------------------------------------------------
  xx     469.923157    -485.103440     -15.180284
  yy     147.985760    -167.314777     -19.329017
  zz      15.770549     -35.389569     -19.619020
  xy     -78.045469      79.176532       1.131063
  xz       2.578680      -2.582952      -0.004273
  yz      -1.740332       1.741115       0.000783
 
     1/3  trace=     -18.042774
     anisotropy=       4.726225
 
 ==============================================================================
 


    ------------------------------------------------------------------------
         total  cpu-time :  2 minutes and 12 seconds
         total wall-time :  13.27 seconds
    ------------------------------------------------------------------------

   ****  ridft : all done  ****


    2018-04-24 21:15:49.700 

