
   OpenMP run-time library returned nthreads =  8

 ricc2 (c-16-29.local) : TURBOMOLE V7.2 ( 21471 ) 11 Oct 2017 at 17:04:51
 Copyright (C) 2017 TURBOMOLE GmbH, Karlsruhe


    2018-04-03 16:59:28.577 



                              R I C C 2 - PROGRAM

                          the quantum chemistry groups
                             at the universities in
                           Karlsruhe, Bochum & Mainz
                                   Germany



   *-----------------------------------------------------------------------*
   |                     program will use  8 thread(s)                     |
   *-----------------------------------------------------------------------*


              +--------------------------------------------------+
              | Atomic coordinate, charge and isotop information |
              +--------------------------------------------------+

                    atomic coordinates            atom    charge  isotop
          1.11256965   -0.03699403    8.43304176    c      6.000     0
         -0.99286022   -0.06614816    6.91307324    c      6.000     0
         -0.75453344   -0.04439855    4.23383521    c      6.000     0
          1.72968560    0.00926155    3.13041940    c      6.000     0
          3.86354583    0.03841454    4.76639235    c      6.000     0
          3.56546497    0.01582646    7.34917989    c      6.000     0
          1.97806724    0.03165726    0.48292329    c      6.000     0
         -0.10772818    0.00341984   -1.12527257    c      6.000     0
         -2.59220707   -0.05155872   -0.00694588    c      6.000     0
         -2.85484045   -0.07351469    2.61611947    c      6.000     0
          0.11071962    0.02692614   -3.87682645    c      6.000     0
         -2.12751944   -0.00797521   -5.37470030    c      6.000     0
         -4.56049290   -0.06402033   -4.17111634    c      6.000     0
         -4.78139564   -0.08394900   -1.61256189    c      6.000     0
         -1.94004727    0.01390725   -8.03459792    c      6.000     0
          0.38915905    0.07011224   -9.21970093    c      6.000     0
          2.60074598    0.10555292   -7.75516752    c      6.000     0
          2.45573747    0.08400702   -5.13837644    c      6.000     0
          4.19636837    0.11259064   -4.05550554    h      1.000     0
          4.43747607    0.15003140   -8.67030633    h      1.000     0
          0.50882275    0.08681402  -11.26937839    h      1.000     0
         -3.67102110   -0.01388155   -9.14153070    h      1.000     0
         -6.23205638   -0.08960590   -5.36576378    h      1.000     0
         -6.63229679   -0.12540884   -0.72130317    h      1.000     0
         -4.74342897   -0.11484263    3.42748492    h      1.000     0
          5.21304915    0.03882839    8.57394749    h      1.000     0
          5.74243155    0.07937965    3.93572355    h      1.000     0
          3.87807140    0.07224631   -0.29127464    h      1.000     0
          0.90917049   -0.05396529   10.47668042    h      1.000     0
         -2.87591127   -0.10622358    7.73367907    h      1.000     0
 
       center of nuclear mass  :   -0.14966097   -0.00139188   -0.46512904
       center of nuclear charge:   -0.13920750   -0.00117399   -0.46424364

              +--------------------------------------------------+
              |               basis set information              |
              +--------------------------------------------------+

              we will work with the 1s 3p 5d 7f 9g ... basis set
              ...i.e. with spherical basis functions...

   type   atoms  prim   cont   basis
   ---------------------------------------------------------------------------
    c       18     50     30   cc-pVTZ   [4s3p2d1f|18s5p2d1f]
    h       12     16     14   cc-pVTZ   [3s2p1d|5s2p1d]
   ---------------------------------------------------------------------------
   total:   30   1092    708
   ---------------------------------------------------------------------------

   total number of primitive shells          :   34
   total number of contracted shells         :  252
   total number of cartesian basis functions :  810
   total number of SCF-basis functions       :  708


 symmetry group of the molecule :   c1 

 the group has the following generators :
   c1(z)

    1 symmetry operations found

 there are 1 real representations :   a   


   =========================================================================


     restricted closed shell calculation for the wavefunction models:
               MP2        - Second Order Moeller Plesset PT


     global parameters for ricc2 program:

        hard restart (reuse of interm.) :  enabled 
        soft restart (reuse of vectors) :  disabled
        threshold for vector function   :    0.100000E-05
        convergence threshold energy    :    0.100000E-06
        linear dependence threshold     :    0.100000E-13
        global print level              :      1
        maximum number of iterations    :   300
        maximum number DIIS vectors     :    10
        max. dim. of reduced space      :   100
        core memory limit (MB)          : 15258


     MP2 energy only: Energy will be calculated directly from T2 amplitudes!

     Scratch Directory : 


   =========================================================================

    der. integral neglect threshold  :  0.10E-07
    integral neglect threshold       :  0.41E-11
    integral storage threshold THIZE :  0.10E-04
    integral storage threshold THIME :         5


                  +------------------------------------------+
                  |     Auxiliary basis set information      |
                  +------------------------------------------+

              we will work with the 1s 3p 5d 7f 9g ... basis set
              ...i.e. with spherical basis functions...

   type   atoms  prim   cont   basis
   ---------------------------------------------------------------------------
    c       18     81     81   cc-pVTZ   [8s6p5d3f1g|8s6p5d3f1g]
    h       12     30     30   cc-pVTZ   [4s3p2d1f|4s3p2d1f]
   ---------------------------------------------------------------------------
   total:   30   1818   1818
   ---------------------------------------------------------------------------

   total number of primitive shells          :   33
   total number of contracted shells         :  534
   total number of cartesian basis functions : 2238
   total number of SCF-basis functions       : 1818


 maximum number of shells which are related by symmetry :  1


 The symmetry information takes   1 MB

*---------------------------------------------------------------------*
|               simplified C1 algorithm will be applied               |
*---------------------------------------------------------------------*
  MOs are in ASCII format !


 reading orbital data $scfmo  from file mos
 orbital characterization : scfconv=7



              +--------------------------------------------+
              | list of orbitals that will be kept frozen: |
              +--------------------------------------------+
              |   irrep   index      energy     occ/vir    |
              +--------------------------------------------+
              |   a         1      -11.2513     occupied   |
              |   a         2      -11.2497     occupied   |
              |   a         3      -11.2475     occupied   |
              |   a         4      -11.2465     occupied   |
              |   a         5      -11.2462     occupied   |
              |   a         6      -11.2453     occupied   |
              |   a         7      -11.2392     occupied   |
              |   a         8      -11.2391     occupied   |
              |   a         9      -11.2391     occupied   |
              |   a        10      -11.2388     occupied   |
              |   a        11      -11.2385     occupied   |
              |   a        12      -11.2383     occupied   |
              |   a        13      -11.2378     occupied   |
              |   a        14      -11.2377     occupied   |
              |   a        15      -11.2375     occupied   |
              |   a        16      -11.2370     occupied   |
              |   a        17      -11.2370     occupied   |
              |   a        18      -11.2362     occupied   |
              +--------------------------------------------+



   Molecular Orbital Statistic:
   ============================

   -----------------------------
   orbitals in total:
   -----------------------------
    frozen occupied :     18
    active occupied :     42
    active virtual  :    648
    frozen virtual  :      0
    all together    :    708
   -----------------------------


     time in riccmos       cpu:  3.95 sec    wall:  0.82 sec    ratio:  4.8

     total memory allocated for calculation of (Q|P)**(-1/2) : 38 MiB


     calculation of (P|Q) ...
     time in lp2sym        cpu:  1.12 sec    wall:  0.14 sec    ratio:  8.0


     calculation of the Cholesky decomposition of (P|Q)**(-1) ...
     time in invmetri      cpu:  3.77 sec    wall:  0.48 sec    ratio:  7.9

   threshold for RMS(d[D]) in SCF was     :  0.10E-06
   integral neglect threshold             :  0.41E-11
   derivative integral neglect threshold  :  0.10E-07


   =========================================================================

     Energy of reference wave function is  -688.8634339696000
     Maximum orbital residual is           0.2294012387616E-05


     Number of symmetry-nonredundant auxiliary basis functions:     1818

     Block lengths for integral files:
        frozen occupied (BOI):        1 MiB
        active occupied (BJI):        1 MiB
        active virtual  (BAI):        9 MiB
        frozen virtual  (BGI):        0 MiB
               general  (BTI):       10 MiB

   =========================================================================



   restarted calculation begins with wavefunction model nb. 1 which is MP2     


   **************************************************************************
   *                                                                        *
   *          OPTIMIZATION OF THE GROUND STATE CLUSTER AMPLITUDES           *
   *                                                                        *
   **************************************************************************


   Iter.   MP2 energy       Norm(Omega)    Norm(t1)  Norm(t2)     cpu    wall
   ...........................................................................
    1   -691.6758185793     ------          0.00000   0.58971    2.03    0.25
   ...........................................................................


     time in total         cpu:  2 min  2 s  wall:  0 min 15 s  ratio:  8.0


     **********************************************************************
     *                                                                    *
     *   RHF  energy                             :   -688.8634339696      *
     *   MP2 correlation energy (doubles)        :     -2.8123846097      *
     *                                                                    *
     *   Final MP2 energy                        :   -691.6758185793      *
     *                                                                    *
     *    E(S)   =     -1.7043022355      E(T)   =     -1.1080823742      *
     *    E(OS)  =     -2.0736630269      E(SS)  =     -0.7387215828      *
     *                                                                    *
     *   SCS-MP2 energy                          :   -691.5980701295      *
     *   (computed with  C(OS) =   1.2000  and  C(SS) =   0.3333)         *
     *                                                                    *
     *   SOS-MP2 energy                          :   -691.5591959046      *
     *   (computed with  C(OS) =   1.3000)                                *
     *                                                                    *
     *   Norm of MP1 T2 amplitudes               :      0.5897084977      *
     *                                                                    *
     **********************************************************************



    ------------------------------------------------------------------------
         total  cpu-time :  3 minutes and 12 seconds
         total wall-time :  24.45 seconds
    ------------------------------------------------------------------------

   ****  ricc2 : all done  ****


    2018-04-03 16:59:52.961 

