
OPTIMIZATION CYCLE 19
Sat Feb  6 16:07:19 PST 2016
 operating system is UNIX !
 hostname is         c-9-334.local

 statpt (c-9-334.local) : TURBOMOLE V7.0.2( ) 8 Jan 2016 at 10:54:38
 Copyright (C) 2016 TURBOMOLE GmbH, Karlsruhe


    2016-02-06 16:07:19.616 



                           this is S T A T P T   


                     hessian and coordinate update for
                          stationary point search 

                     by barbara unterreiner, marek sierka,
                           and reinhart ahlrichs

                          quantum chemistry group
                          universitaet  karlsruhe
                                  germany


  Keyword $statpt not found - using default options
 
        ***************  Stationary point options ******************
        ************************************************************
           Maximum allowed trust radius:           3.000000E-01
           Minimum allowed trust radius:           1.000000E-03
           Initial trust radius:                   1.500000E-01
           GDIIS used if gradient norm <           1.000000E-02
           Number of previous steps for GDIIS:       5
           Hessian update method:                  BFGS
                        *** Convergence criteria ***                
           Threshold for energy change:            1.000000E-07
           Threshold for max displacement element: 1.000000E-03
           Threshold for max gradient element :    1.000000E-04
           Threshold for RMS of displacement:      5.000000E-04
           Threshold for RMS of gradient:          5.000000E-04
        ************************************************************
 
  actual coordinates :
        -0.784963929869         0.408619511356        -1.048873655366
         3.805131049624         0.420703267727        -1.159020021098
         3.906600576092         3.287804863384        -1.135205285440
         1.539041838042         4.354300735635        -2.378130544775
        -0.770436335586         3.291730188913        -1.031868237050
        -3.106167701010        -0.651258423404         0.328241917453
        -3.047034120709        -3.538543247289         0.312557259422
        -0.566587346143        -4.548483082195         1.373789291715
         1.636864973423        -3.335518175120        -0.007382142892
        -2.513693366352         3.970620132818        -1.896454269257
        -0.740883840750         3.942407445006         0.923564222720
         1.504732553550         3.800727908066        -4.368398792082
         1.535350876295         6.411456111547        -2.309770505971
         5.606731210396         3.914641845159        -2.113394409143
         4.018757491592         3.944943446827         0.817001423337
         3.833164068317        -0.239047204325        -3.134513541966
         5.455385269851        -0.368607282177        -0.216193054119
         3.425677441488        -3.947863156488         0.805252808282
         1.611002098492        -3.939212905130        -2.000363629040
        -0.464279093612        -6.591928789099         1.136678800495
        -0.435597887067        -4.128645979121         3.382015188718
        -3.245258165346        -4.193889413299        -1.637878309802
        -4.649463687062        -4.281805329361         1.373868915900
        -4.762953432669        -0.046565830574        -0.749051806431
        -0.866936006933        -0.234790689514        -3.031759019311
         1.554894757649        -0.563012758835         0.130086998542
        -3.434773606774         0.460057373832         2.979175346377
        -4.044223926701         2.428361348372         2.818794743451
        -4.945922619229        -0.565990768053         3.937615881069
        -1.241594009237         0.302865927218         4.530833185815
         0.187434870235         0.235922928122         3.368781240446
  actual gradients :
        -0.000027650769         0.000014687631        -0.000026871440
         0.000023489613         0.000001685368        -0.000001997646
        -0.000000266984         0.000014242127         0.000011928101
        -0.000005742237        -0.000008944575        -0.000023360150
        -0.000009665758        -0.000000196242         0.000029274841
         0.000002099842        -0.000003853481         0.000025909005
         0.000000337251        -0.000002468046        -0.000027985277
        -0.000001803716         0.000009643694         0.000019737258
         0.000001116237        -0.000020458281         0.000006891562
        -0.000002464840        -0.000000934173        -0.000001957650
        -0.000002363975         0.000000996393         0.000002494061
         0.000001118559         0.000002801649         0.000000053304
        -0.000002837002         0.000001697522         0.000001550074
         0.000001905470        -0.000000485757        -0.000002408206
         0.000002406783         0.000000888019         0.000000333850
         0.000000210209        -0.000002095780         0.000000187761
         0.000003161625        -0.000003035112         0.000002387281
         0.000006762680         0.000002769522         0.000000343818
         0.000001262693        -0.000001188854        -0.000001034294
        -0.000002306728        -0.000004297839        -0.000003371127
         0.000000731041        -0.000007215138        -0.000001428325
        -0.000000620552        -0.000001880816         0.000000090855
        -0.000004780496         0.000006878114        -0.000001123331
        -0.000004095233         0.000002363684        -0.000005768739
         0.000000580887         0.000001754538         0.000006054644
         0.000018305422        -0.000016543315        -0.000018608226
         0.000003765903         0.000003848360        -0.000007680624
         0.000001046354         0.000004011891        -0.000001137027
        -0.000002117467        -0.000001022450         0.000003175509
        -0.000009850946         0.000005949476         0.000013030279
         0.000008329035         0.000000693985         0.000001131211
     Number of symmetry restricted degrees of freedom:    93
     Constituted by:     3 translational degrees of freedom
                         3 rotational degrees of freedom
                      87 internal degrees of freedom

  *************************************************************************
   ATOM                      CARTESIAN COORDINATES
    1 c      -0.78496392986890      0.40861951135598     -1.04887365536615
    2 c       3.80513104962414      0.42070326772697     -1.15902002109820
    3 c       3.90660057609217      3.28780486338412     -1.13520528544035
    4 c       1.53904183804154      4.35430073563546     -2.37813054477508
    5 c      -0.77043633558568      3.29173018891297     -1.03186823704977
    6 c      -3.10616770101000     -0.65125842340428      0.32824191745272
    7 c      -3.04703412070900     -3.53854324728873      0.31255725942206
    8 c      -0.56658734614260     -4.54848308219534      1.37378929171530
    9 c       1.63686497342334     -3.33551817511956     -0.00738214289181
   10 h      -2.51369336635181      3.97062013281839     -1.89645426925689
   11 h      -0.74088384074974      3.94240744500600      0.92356422271982
   12 h       1.50473255355032      3.80072790806553     -4.36839879208171
   13 h       1.53535087629512      6.41145611154721     -2.30977050597071
   14 h       5.60673121039600      3.91464184515928     -2.11339440914255
   15 h       4.01875749159175      3.94494344682692      0.81700142333671
   16 h       3.83316406831740     -0.23904720432547     -3.13451354196591
   17 h       5.45538526985115     -0.36860728217706     -0.21619305411864
   18 h       3.42567744148832     -3.94786315648791      0.80525280828173
   19 h       1.61100209849175     -3.93921290512951     -2.00036362904003
   20 h      -0.46427909361181     -6.59192878909896      1.13667880049480
   21 h      -0.43559788706686     -4.12864597912111      3.38201518871799
   22 h      -3.24525816534600     -4.19388941329855     -1.63787830980176
   23 h      -4.64946368706209     -4.28180532936079      1.37386891590017
   24 h      -4.76295343266865     -0.04656583057374     -0.74905180643090
   25 h      -0.86693600693338     -0.23479068951396     -3.03175901931105
   26 n       1.55489475764942     -0.56301275883454      0.13008699854198
   27 c      -3.43477360677446      0.46005737383161      2.97917534637706
   28 h      -4.04422392670068      2.42836134837184      2.81879474345076
   29 h      -4.94592261922874     -0.56599076805313      3.93761588106949
   30 o      -1.24159400923722      0.30286592721821      4.53083318581499
   31 h       0.18743487023520      0.23592292812190      3.36878124044603
  *************************************************************************
   ATOM                      CARTESIAN GRADIENTS  
    1 c      -0.00002765076939      0.00001468763086     -0.00002687143999
    2 c       0.00002348961257      0.00000168536848     -0.00000199764553
    3 c      -0.00000026698426      0.00001424212739      0.00001192810147
    4 c      -0.00000574223657     -0.00000894457455     -0.00002336015011
    5 c      -0.00000966575809     -0.00000019624194      0.00002927484132
    6 c       0.00000209984217     -0.00000385348081      0.00002590900504
    7 c       0.00000033725089     -0.00000246804590     -0.00002798527713
    8 c      -0.00000180371607      0.00000964369430      0.00001973725758
    9 c       0.00000111623700     -0.00002045828082      0.00000689156212
   10 h      -0.00000246483979     -0.00000093417262     -0.00000195765005
   11 h      -0.00000236397529      0.00000099639342      0.00000249406082
   12 h       0.00000111855879      0.00000280164876      0.00000005330394
   13 h      -0.00000283700227      0.00000169752222      0.00000155007420
   14 h       0.00000190546968     -0.00000048575713     -0.00000240820579
   15 h       0.00000240678335      0.00000088801874      0.00000033384951
   16 h       0.00000021020886     -0.00000209577955      0.00000018776088
   17 h       0.00000316162517     -0.00000303511190      0.00000238728089
   18 h       0.00000676268010      0.00000276952169      0.00000034381799
   19 h       0.00000126269308     -0.00000118885399     -0.00000103429426
   20 h      -0.00000230672841     -0.00000429783919     -0.00000337112693
   21 h       0.00000073104146     -0.00000721513751     -0.00000142832486
   22 h      -0.00000062055192     -0.00000188081580      0.00000009085548
   23 h      -0.00000478049574      0.00000687811436     -0.00000112333085
   24 h      -0.00000409523276      0.00000236368383     -0.00000576873871
   25 h       0.00000058088745      0.00000175453846      0.00000605464435
   26 n       0.00001830542238     -0.00001654331452     -0.00001860822607
   27 c       0.00000376590333      0.00000384835981     -0.00000768062394
   28 h       0.00000104635376      0.00000401189067     -0.00000113702655
   29 h      -0.00000211746663     -0.00000102244998      0.00000317550856
   30 o      -0.00000985094607      0.00000594947572      0.00001303027904
   31 h       0.00000832903540      0.00000069398533      0.00000113121077
  *************************************************************************

  norm of actual CARTESIAN gradient:  9.22442E-05
  norm of actual INTERNAL  gradient:  1.37059E-04

  ENERGY =    -522.9742662933 a.u.; # of cycle =   19

  Approximate Hessian read from $hessapprox data section

  Hessian updated according to BFGS formula
  Number of zero Hessian eigenvalues:   0

        ***************  Trust radius update info  *****************
                Actual energy change:        1.30001E-09
                Predicted energy change:    -1.73747E-07
                Actual step radius:          1.54919E-03
                Actual trust radius:         0.001549
                Energy change ratio:        -0.007482
                New trust radius:            0.001000
        ************************************************************


  Results of the TRO shift search
  Final shift: -1.60044E-02 residual -1.48231E-21
  Final step radius: 1.00000E-03

  Transforming internal coordinate displacements to Cartesian space
      Iteration   1 residual norm     1.000000E-03
      Iteration   2 residual norm     4.251480E-07
      Iteration   3 residual norm     9.539880E-15
      Transformation converged
      Residual norm:    9.539880E-15 after    3 iterations

      ****************************************************************** 
                          CONVERGENCE INFORMATION

                               Converged?     Value      Criterion
             Energy change         yes      0.0000000   0.0000001
             RMS of displacement   yes      0.0001072   0.0005000
             RMS of gradient       yes      0.0000147   0.0005000
             MAX displacement      yes      0.0005990   0.0010000
             MAX gradient          yes      0.0000883   0.0001000
      ****************************************************************** 


    ------------------------------------------------------------------------
         total  cpu-time :   0.05 seconds
         total wall-time :   0.06 seconds
    ------------------------------------------------------------------------


   ****  statpt : all done  ****


    2016-02-06 16:07:19.662 

fine, there is no data group "$actual step"
next step = ridft
 operating system is UNIX !
 hostname is         c-9-334.local

 ridft (c-9-334.local) : TURBOMOLE V7.0( ) 18 Nov 2015 at 09:57:41
 Copyright (C) 2015 TURBOMOLE GmbH, Karlsruhe


    2016-02-06 16:07:19.727 



                                  r i d f t

                        DFT program with RI approximation 
                                for coulomb part 




                                                 
                                 References:     
                                                 
          TURBOMOLE:                             
              R. Ahlrichs, M. Baer, M. Haeser, H. Horn, and
              C. Koelmel
              Electronic structure calculations on workstation
              computers: the program system TURBOMOLE
              Chem. Phys. Lett. 162: 165 (1989)
          Density Functional:                              
              O. Treutler and R. Ahlrichs                      
              Efficient Molecular Numerical Integration Schemes
              J. Chem. Phys. 102: 346 (1995)                   
          Parallel Version:                                
              Performance of parallel TURBOMOLE for Density    
              Functional Calculations                          
              M. v. Arnim and R. Ahlrichs                      
              J. Comp. Chem. 19: 1746 (1998)                   
          RI-J Method:                                     
              Auxiliary Basis Sets to approximate Coulomb      
              Potentials                                       
              Chem. Phys. Lett. 240: 283 (1995)                
              K. Eichkorn, O. Treutler, H. Oehm, M. Haeser     
              and R. Ahlrichs                                  
              Chem. Phys. Lett. 242: 652 (1995)                
                                                           
              Auxiliary Basis Sets for Main Row Atoms and their
              Use to approximate Coulomb Potentials            
              K. Eichkorn, F. Weigend, O. Treutler and         
              R. Ahlrichs                                      
              Theo. Chem. Acc. 97: 119 (1997)                   
                                                           
              Accurate Coulomb-fitting basis sets for H to Rn 
              F. Weigend                                        
              Phys. Chem. Chem. Phys. 8: 1057 (2006)            
                                                           
          Multipole accelerated RI-J (MARI-J):             
              Fast evaluation of the Coulomb potential for     
              electron densities using multipole accelerated   
              resolution of identity approximation             
              M. Sierka, A. Hogekamp and R. Ahlrichs           
              J. Chem. Phys. 118: 9136 (2003)                  
          RI-JK Method:                                     
              A fully direct RI-HF algorithm: Implementation,
              optimised auxiliary basis sets, demonstration of
              accuracy and efficiency                         
              F. Weigend                                      
              Phys. Chem. Chem. Phys. 4: 4285 (2002)           
          Two-component HF and DFT with spin-orbit coupling:  
              Self-consistent treatment of spin-orbit         
              interactions with efficient Hartree-Fock and    
              density functional methods                      
              M. K. Armbruster, F. Weigend, C. van Wüllen and 
              W. Klopper                                      
              Phys. Chem. Chem. Phys. 10: 1748 (2008)         
          Relativistic all-electron 2c calculations           
              An efficient implementation of two-component    
              relativistic exact-decoupling methods for large 
              molecules                                       
              D. Peng, N. Middendorf, F. Weigend, M. Reiher   
              J. Chem. Phys. 138, 184105 (2013)               
                                         


 


              +--------------------------------------------------+
              |      general information about current run       |
              +--------------------------------------------------+

 

 DENSITY CONVERGENCE CHECK SWITCHED ON !
 SCF CONVERGENCE IF RMS(delta[D]) <     0.1000000000E-06

 PBE functional
 exchange:    LDA + PBE
 correlation: LDA (PW) + PBE
 A DFT calculation using the RI-J approximation will be carried out.
 Allocatable memory for RI due to $ricore (MB):       15000


              +--------------------------------------------------+
              | Atomic coordinate, charge and isotop information |
              +--------------------------------------------------+

                    atomic coordinates            atom    charge  isotop
         -0.78499509    0.40860255   -1.04886039    c      6.000     0
          3.80483801    0.42074530   -1.15882837    c      6.000     0
          3.90653444    3.28778178   -1.13470211    c      6.000     0
          1.53939076    4.35425493   -2.37823665    c      6.000     0
         -0.77039785    3.29173090   -1.03260193    c      6.000     0
         -3.10618859   -0.65124813    0.32832796    c      6.000     0
         -3.04710789   -3.53850531    0.31272649    c      6.000     0
         -0.56660941   -4.54829846    1.37376045    c      6.000     0
          1.63662164   -3.33519758   -0.00755345    c      6.000     0
         -2.51337679    3.97040031   -1.89788084    h      1.000     0
         -0.74153592    3.94283976    0.92268680    h      1.000     0
          1.50557712    3.80061580   -4.36848982    h      1.000     0
          1.53576672    6.41139820   -2.30993534    h      1.000     0
          5.60699577    3.91464359   -2.11226957    h      1.000     0
          4.01800830    3.94475085    0.81759260    h      1.000     0
          3.83259358   -0.23874863   -3.13440804    h      1.000     0
          5.45510010   -0.36880897   -0.21628031    h      1.000     0
          3.42551134   -3.94777489    0.80465901    h      1.000     0
          1.61035738   -3.93854105   -2.00063155    h      1.000     0
         -0.46413184   -6.59173534    1.13684275    h      1.000     0
         -0.43553602   -4.12819835    3.38193202    h      1.000     0
         -3.24549694   -4.19388411   -1.63767819    h      1.000     0
         -4.64935532   -4.28185449    1.37423406    h      1.000     0
         -4.76304595   -0.04649969   -0.74874967    h      1.000     0
         -0.86686338   -0.23524323   -3.03163238    h      1.000     0
          1.55464375   -0.56277795    0.13037606    n      7.000     0
         -3.43450527    0.45969640    2.97945246    c      6.000     0
         -4.04421778    2.42794093    2.81945657    h      1.000     0
         -4.94533931   -0.56666919    3.93801066    h      1.000     0
         -1.24098077    0.30250518    4.53056463    o      8.000     0
          0.18774519    0.23607891    3.36811608    h      1.000     0
 
       center of nuclear mass  :   -0.04398270   -0.00670383    0.29643389
       center of nuclear charge:   -0.03692659   -0.00543957    0.25174076

              +--------------------------------------------------+
              |               basis set information              |
              +--------------------------------------------------+

              we will work with the 1s 3p 5d 7f 9g ... basis set
              ...i.e. with spherical basis functions...

   type   atoms  prim   cont   basis
   ---------------------------------------------------------------------------
    c       10     50     30   cc-pVTZ   [4s3p2d1f|18s5p2d1f]
    h       19     16     14   cc-pVTZ   [3s2p1d|5s2p1d]
    n        1     50     30   cc-pVTZ   [4s3p2d1f|18s5p2d1f]
    o        1     50     30   cc-pVTZ   [4s3p2d1f|18s5p2d1f]
   ---------------------------------------------------------------------------
   total:   31    904    626
   ---------------------------------------------------------------------------

   total number of primitive shells          :   86
   total number of contracted shells         :  234
   total number of cartesian basis functions :  705
   total number of SCF-basis functions       :  626


 integral neglect threshold       :  0.47E-13
 integral storage threshold THIZE :  0.10E-04
 integral storage threshold THIME :         5

 RI-J AUXILIARY BASIS SET information:

              we will work with the 1s 3p 5d 7f 9g ... basis set
              ...i.e. with spherical basis functions...

   type   atoms  prim   cont   basis
   ---------------------------------------------------------------------------
    c       10     70     49   cc-pVTZ   [6s4p3d1f1g|12s5p4d2f1g]
    h       19     16     11   cc-pVTZ   [3s1p1d|5s2p1d]
    n        1     70     49   cc-pVTZ   [6s4p3d1f1g|12s5p4d2f1g]
    o        1     70     49   cc-pVTZ   [6s4p3d1f1g|12s5p4d2f1g]
   ---------------------------------------------------------------------------
   total:   31   1144    797
   ---------------------------------------------------------------------------

   total number of primitive shells          :   80
   total number of contracted shells         :  275
   total number of cartesian basis functions :  960
   total number of SCF-basis functions       :  797


 symmetry group of the molecule :   c1 

 the group has the following generators :
   c1(z)

    1 symmetry operations found

 there are 1 real representations :   a   

 maximum number of shells which are related by symmetry :  1


    mo occupation :
   irrep   mo's   occupied
    a      626       47
 
 number of basis functions   :          626
 number of occupied orbitals :           47
 
  
           ------------------
           density functional
           ------------------
 PBE functional
 exchange:    LDA + PBE
 correlation: LDA (PW) + PBE
 iterations will be done with small grid
  
 spherical integration : Lebedev's spherical grid
 spherical gridsize    :           5
    i.e. gridpoints    :         590
 value for diffuse not defined
 radial integration    : Chebyshev 2nd kind (scaling 3)
 radial gridsize       :           8
 integration cells     :          31
 partition function    : becke
 partition sharpness   :           3
  

 biggest AO integral is expected to be     4.866064444
  
           ------------------------
               RI-J - INFORMATION
           ------------------------
 Contributions to RI integral batches: 
  neglected integral batches:        3738
  direct contribution:                  0
  memory contribution:       23757
 Memory core needed for (P|Q) and Cholesky      5 MByte
 Memory core minimum needed except of (P|Q)     2 MByte
 Total minimum memory core needed (sum)         7 MByte
  
 ****************************************
 Memory allocated for RI-J  1533 MByte
 ****************************************
                                            

          ------------------------
          nuclear repulsion energy  :   819.163266093    
          ------------------------

 
          -----------------
          -S,T+V- integrals
          -----------------

 1e-integrals will be neglected if expon. factor < 0.474037E-14
 
   Difference densities algorithm switched on.
   The maximal number of linear combinations of
   difference densities is          20 .

 automatic virtual orbital shift switched on 
      shift if e(lumo)-e(homo) < 0.10000000    


 DIIS switched on: error vector is FDS-SDF
 Max. Iterations for DIIS is     :   4
 DIIS matrix (see manual) 
    Scaling factor of diagonals  :  1.200
    threshold for scaling factor :  0.000

 scf convergence criterion : increment of total energy < .1000000D-08
                  and increment of one-electron energy < .1000000D-05

  MOs are in ASCII format !


 reading orbital data $scfmo  from file mos . 

 orbital characterization : scfconv=9
 

 DSCF restart information will be dumped onto file mos


 Starting SCF iterations

          Overall gridpoints after grid construction =        136158

 ITERATION  ENERGY          1e-ENERGY        2e-ENERGY     RMS[dD(SAO)]   TOL
   1  -521.97090786861    -2333.1506251     992.01645115    0.000D+00 0.473D-13
                            Exc = -76.3810711581     Coul =  1068.39752231    
                              N = 93.999945722    
                            current damping = 0.700
 
          max. resid. norm for Fia-block=  1.111D-04 for orbital     10a         
          max. resid. fock norm         =  1.028D-03 for orbital    615a         

 ITERATION  ENERGY          1e-ENERGY        2e-ENERGY     RMS[dD(SAO)]   TOL
   2  -521.97090803670    -2333.1514418     992.01726771    0.106D-05 0.300D-13
                            Exc = -76.3811157050     Coul =  1068.39838341    
                              N = 93.999945713    
                            current damping = 0.650
 
          Norm of current diis error: 0.68962E-03
          max. resid. norm for Fia-block=  4.585D-05 for orbital     10a         
          max. resid. fock norm         =  4.352D-04 for orbital    615a         

 ITERATION  ENERGY          1e-ENERGY        2e-ENERGY     RMS[dD(SAO)]   TOL
   3  -521.97090806300    -2333.1502385     992.01606430    0.497D-06 0.236D-13
                            Exc = -76.3810589858     Coul =  1068.39712329    
                              N = 93.999945709    
                            current damping = 0.600
 
          Norm of current diis error: 0.39988E-03
          max. resid. norm for Fia-block=  2.035D-05 for orbital     47a         
          max. resid. fock norm         =  1.612D-04 for orbital    615a         

 ITERATION  ENERGY          1e-ENERGY        2e-ENERGY     RMS[dD(SAO)]   TOL
   4  -521.97090806995    -2333.1514529     992.01727877    0.322D-06 0.221D-13
                            Exc = -76.3811139021     Coul =  1068.39839267    
                              N = 93.999945707    
                            current damping = 0.650
 
          Norm of current diis error: 0.17185E-03
          max. resid. norm for Fia-block=  6.751D-06 for orbital     10a         
          max. resid. fock norm         =  6.567D-05 for orbital    615a         

 DENSITY CONVERGED !


 ITERATION  ENERGY          1e-ENERGY        2e-ENERGY     RMS[dD(SAO)]   TOL
   5  -521.97090807128    -2333.1510875     992.01691337    0.988D-07 0.212D-13
                            Exc = -76.3810996327     Coul =  1068.39801300    
                              N = 93.999945706    
                            current damping = 0.700
 
          Norm of current diis error: 0.45734E-04
          max. resid. norm for Fia-block=  2.666D-06 for orbital     10a         
          max. resid. fock norm         =  2.508D-05 for orbital    615a         
          mo-orthogonalization: Cholesky decomposition

 DENSITY CONVERGED !


 ITERATION  ENERGY          1e-ENERGY        2e-ENERGY     RMS[dD(SAO)]   TOL
   6  -521.97090807137    -2333.1510670     992.01689283    0.279D-07 0.208D-13
                            Exc = -76.3810968110     Coul =  1068.39798964    
                              N = 93.999945706    
                            current damping = 0.550
 
          Norm of current diis error: 0.20871E-04
          max. resid. norm for Fia-block=  1.100D-06 for orbital     10a         
          max. resid. fock norm         =  1.027D-05 for orbital    615a         

 ENERGY & DENSITY CONVERGED !

          Overall gridpoints after grid construction =        447469

 ITERATION  ENERGY          1e-ENERGY        2e-ENERGY     RMS[dD(SAO)]   TOL
   7  -521.97092752733    -2333.1510539     992.01686029    0.138D-07 0.204D-13
                            Exc = -76.3811170718     Coul =  1068.39797737    
                              N = 93.999990446    
                            current damping = 0.400
 
          Norm of current diis error: 0.80696E-05
          max. resid. norm for Fia-block=  4.401D-07 for orbital     46a         
          max. resid. fock norm         =  3.550D-06 for orbital    615a         

 End of SCF iterations

   convergence criteria satisfied after    7 iterations


                  ------------------------------------------ 
                 |  total energy      =   -521.97092752733  |
                  ------------------------------------------ 
                 :  kinetic energy    =    518.72956855460  :
                 :  potential energy  =  -1040.70049608193  :
                 :  virial theorem    =      1.99379015420  :
                 :  wavefunction norm =      1.00000000000  :
                  .......................................... 


 orbitals $scfmo  will be written to file mos

    irrep                 43a         44a         45a         46a         47a   
 eigenvalues H         -0.26939    -0.26487    -0.25776    -0.20101    -0.19615
            eV          -7.3305     -7.2074     -7.0140     -5.4699     -5.3376
 occupation              2.0000      2.0000      2.0000      2.0000      2.0000 

    irrep                 48a         49a         50a         51a         52a   
 eigenvalues H          0.00946     0.02359     0.02849     0.03222     0.05487
            eV           0.2573      0.6418      0.7754      0.8768      1.4932
 
 
 
 
 ==============================================================================
                           electrostatic moments
 ==============================================================================

 reference point for electrostatic moments:    0.00000   0.00000   0.00000

 
              nuc           elec       ->  total
 ------------------------------------------------------------------------------
                          charge      
 ------------------------------------------------------------------------------
          94.000000     -94.000000      -0.000000
 
 ------------------------------------------------------------------------------
                       dipole moment  
 ------------------------------------------------------------------------------
   x      -3.471099       3.642651       0.171552
   y      -0.511320       0.440130      -0.071189
   z      23.663631     -24.683727      -1.020096
 
   | dipole moment | =     1.0369 a.u. =     2.6355 debye 
 
 ------------------------------------------------------------------------------
                     quadrupole moment
 ------------------------------------------------------------------------------
  xx     646.203888    -700.280120     -54.076232
  yy     770.223889    -825.501626     -55.277737
  zz     403.241581    -466.343141     -63.101560
  xy     200.189421    -200.012816       0.176604
  xz    -242.223779     242.956019       0.732240
  yz    -186.137015     185.110465      -1.026550
 
     1/3  trace=     -57.485176
     anisotropy=       8.770387
 
 ==============================================================================
 
 


    ------------------------------------------------------------------------
         total  cpu-time :  1 minutes and  1 seconds
         total wall-time :  1 minutes and  1 seconds
    ------------------------------------------------------------------------


   ****  ridft : all done  ****


    2016-02-06 16:08:21.083 

fine, there is no data group "$actual step"
next step = rirpa
 
 
    *************************************************************************
    *************************** PROGRAM RIRPA *******************************
    ******                                                             ******
    ******              H. Eshuis, J. E. Bates and F. Furche           ******
    ******                                                             ******
    ****** Nov 2011                                                    ******
    ****** Copyright TURBOMOLE GmbH                                    ******
    *************************************************************************
    
    
                                References:                                  
    
                   RIRPA:                                                    
                     H. Eshuis, J. Yarkony and F. Furche                     
                     Fast computation of molecular random phase              
                     approximation correlation energies using resolution     
                     of the identity imaginary frequency integration         
                     J. Chem. Phys. 132: 234114 (2010)                       
    
                     H. Eshuis, J. E. Bates and F. Furche                    
                     Electron correlation methods based on                   
                     the random phase approximation                          
                     Theor. Chem. Acc.  131: 1084 (2012)                     
    
                   TWO-COMPONENT RIRPA:                                      
                     M. Kuehn                                                
                     Correlation energies from the                           
                     two-component random-phase approximation                
                     J. Chem. Theory Comput. 10: 623 (2014)                  
    
                   RIRPA GRADIENTS:                                          
                     Asbjoern M. Burow, Jefferson E. Bates, Filipp Furche*,  
                     and Henk Eshuis                                         
                     Analytical First-Order Molecular Properties and Forces  
                     within the Adiabatic Connection Random Phase            
                     Approximation                                           
                     J. Chem. Theory Comput. (2013, ASAP),                   
                     DOI: 10.1021/ct4008553                                  
    
    
    
 hostname is         c-9-334.local

 rirpa (c-9-334.local) : TURBOMOLE V7.0( ) 18 Nov 2015 at 09:57:41
 Copyright (C) 2015 TURBOMOLE GmbH, Karlsruhe


    2016-02-06 16:08:21.147 

 number of mkl threads =          10
 
                FOUND RI-J FLAG
 
  HF exact exchange energy will be computed using RI-J.


              +--------------------------------------------------+
              | Atomic coordinate, charge and isotop information |
              +--------------------------------------------------+

                    atomic coordinates            atom    charge  isotop
         -0.78499509    0.40860255   -1.04886039    c      6.000     0
          3.80483801    0.42074530   -1.15882837    c      6.000     0
          3.90653444    3.28778178   -1.13470211    c      6.000     0
          1.53939076    4.35425493   -2.37823665    c      6.000     0
         -0.77039785    3.29173090   -1.03260193    c      6.000     0
         -3.10618859   -0.65124813    0.32832796    c      6.000     0
         -3.04710789   -3.53850531    0.31272649    c      6.000     0
         -0.56660941   -4.54829846    1.37376045    c      6.000     0
          1.63662164   -3.33519758   -0.00755345    c      6.000     0
         -2.51337679    3.97040031   -1.89788084    h      1.000     0
         -0.74153592    3.94283976    0.92268680    h      1.000     0
          1.50557712    3.80061580   -4.36848982    h      1.000     0
          1.53576672    6.41139820   -2.30993534    h      1.000     0
          5.60699577    3.91464359   -2.11226957    h      1.000     0
          4.01800830    3.94475085    0.81759260    h      1.000     0
          3.83259358   -0.23874863   -3.13440804    h      1.000     0
          5.45510010   -0.36880897   -0.21628031    h      1.000     0
          3.42551134   -3.94777489    0.80465901    h      1.000     0
          1.61035738   -3.93854105   -2.00063155    h      1.000     0
         -0.46413184   -6.59173534    1.13684275    h      1.000     0
         -0.43553602   -4.12819835    3.38193202    h      1.000     0
         -3.24549694   -4.19388411   -1.63767819    h      1.000     0
         -4.64935532   -4.28185449    1.37423406    h      1.000     0
         -4.76304595   -0.04649969   -0.74874967    h      1.000     0
         -0.86686338   -0.23524323   -3.03163238    h      1.000     0
          1.55464375   -0.56277795    0.13037606    n      7.000     0
         -3.43450527    0.45969640    2.97945246    c      6.000     0
         -4.04421778    2.42794093    2.81945657    h      1.000     0
         -4.94533931   -0.56666919    3.93801066    h      1.000     0
         -1.24098077    0.30250518    4.53056463    o      8.000     0
          0.18774519    0.23607891    3.36811608    h      1.000     0
 
       center of nuclear mass  :   -0.04398270   -0.00670383    0.29643389
       center of nuclear charge:   -0.03692659   -0.00543957    0.25174076
              +-------------------------------------------------+
              |        Rotational Constants Section             |
              +-------------------------------------------------+
                                   Center of Mass [a.u]:
              -0.04398270013527        -0.00670383432021         0.29643389208012
                     Principal Moments of Inertia [a.u.]
            1258.04517380484367      2194.78379984371168      2654.82676245860148
                       Rotational constants A,B,C [a.u.]
               0.00039744200797         0.00022781287161         0.00018833620599
                     Rotational constants A,B,C [cm**-1]
               0.04785176858924         0.02742852691732         0.02267556112624
                        Rotational constants A,B,C [MHz]
            1434.55993250145252       822.28655038631530       679.79622065656247

   * BASIS SET information:

              +--------------------------------------------------+
              |               basis set information              |
              +--------------------------------------------------+

              we will work with the 1s 3p 5d 7f 9g ... basis set
              ...i.e. with spherical basis functions...

   type   atoms  prim   cont   basis
   ---------------------------------------------------------------------------
    c       10     50     30   cc-pVTZ   [4s3p2d1f|18s5p2d1f]
    h       19     16     14   cc-pVTZ   [3s2p1d|5s2p1d]
    n        1     50     30   cc-pVTZ   [4s3p2d1f|18s5p2d1f]
    o        1     50     30   cc-pVTZ   [4s3p2d1f|18s5p2d1f]
   ---------------------------------------------------------------------------
   total:   31    904    626
   ---------------------------------------------------------------------------

   total number of primitive shells          :   86
   total number of contracted shells         :  234
   total number of cartesian basis functions :  705
   total number of SCF-basis functions       :  626


   * AUXILIARY BASIS SET information:

              +--------------------------------------------------+
              |               basis set information              |
              +--------------------------------------------------+

              we will work with the 1s 3p 5d 7f 9g ... basis set
              ...i.e. with spherical basis functions...

   type   atoms  prim   cont   basis
   ---------------------------------------------------------------------------
    c       10     81     81   cc-pVTZ   [8s6p5d3f1g|8s6p5d3f1g]
    h       19     30     30   cc-pVTZ   [4s3p2d1f|4s3p2d1f]
    n        1     81     81   cc-pVTZ   [8s6p5d3f1g|8s6p5d3f1g]
    o        1     81     81   cc-pVTZ   [8s6p5d3f1g|8s6p5d3f1g]
   ---------------------------------------------------------------------------
   total:   31   1542   1542
   ---------------------------------------------------------------------------

   total number of primitive shells          :   79
   total number of contracted shells         :  466
   total number of cartesian basis functions : 1877
   total number of SCF-basis functions       : 1542


   * RIJ AUXILIARY BASIS SET information:

              +--------------------------------------------------+
              |               basis set information              |
              +--------------------------------------------------+

              we will work with the 1s 3p 5d 7f 9g ... basis set
              ...i.e. with spherical basis functions...

   type   atoms  prim   cont   basis
   ---------------------------------------------------------------------------
    c       10     70     49   cc-pVTZ   [6s4p3d1f1g|12s5p4d2f1g]
    h       19     16     11   cc-pVTZ   [3s1p1d|5s2p1d]
    n        1     70     49   cc-pVTZ   [6s4p3d1f1g|12s5p4d2f1g]
    o        1     70     49   cc-pVTZ   [6s4p3d1f1g|12s5p4d2f1g]
   ---------------------------------------------------------------------------
   total:   31   1144    797
   ---------------------------------------------------------------------------

   total number of primitive shells          :   80
   total number of contracted shells         :  275
   total number of cartesian basis functions :  960
   total number of SCF-basis functions       :  797


 reading orbital data $scfmo  from file mos . 

 orbital characterization : scfconv=9
 

 integral neglect threshold       :  0.32E+02

 scfconv           9

 MAXIMUM CORE MEMORY WHICH CAN BE ALLOCATED DYNAMICALLY = 20000 MiB
              ( or 2621440000 double words )


 there are 1 real representations :   a   

 maximum number of shells which are related by symmetry :  1


         --------------------------------------------------------------
                   checking mo's by calculating trace(D*S)

              number of electrons : 
                 from trace(D*S)         :   94.000000000004
                 from occupation numbers :   94.000000000000

              molecular charge           :    0.000000000000
         --------------------------------------------------------------

 time elapsed for calculating density matrices :   0.436 sec
 all orbitals will be active in the correlation treatment

     total memory allocated for calculation of (Q|P)**(-1/2) : 28 MiB


     calculation of (P|Q) ...
     time in lp2sym        cpu:  0.81 sec    wall:  0.08 sec    ratio: 10.0


     calculation of the Cholesky decomposition of (P|Q)**(-1) ...
     time in invmetri      cpu:  3.81 sec    wall:  0.38 sec    ratio: 10.0

   threshold for RMS(d[D]) in SCF was     :  0.10E-06
   integral neglect threshold             :  0.18E-13
   derivative integral neglect threshold  :  0.10E-06


 setting up bound for integral derivative estimation

 increment for numerical differentiation : 0.00050000
 total memory allocated for calculation of (Q|P)**(-1/2) : 28 MiB
 Dividing biap into         1466  block chunks,
 using                     6 MB per block
 Reserved                   9985 MB for BLAS routines
 Estimated total memory usage:                  19990 MB
 number of passes:            1
 
 Number of eigenvalues < 6e-3:            0
 
 
            -----------------------------
            Complex frequency integration
            -----------------------------
 
 Number of Clenshaw-Curtis nodes:          200
 Optimized scaling parameter    :    1.00000000000000     
 Sensitivity measure            :  -3.128519665551721E-011
 
 Allocatable memory for RI due to $ricore (MB):       15000

 there are 1 real representations :   a   

 maximum number of shells which are related by symmetry :  1

  
           ------------------------
               RI-J - INFORMATION
           ------------------------
 Contributions to RI integral batches: 
  neglected integral batches:        1757
  direct contribution:                  0
  memory contribution:       25738
 
          -----------------
          -S,T+V- integrals
          -----------------

 1e-integrals will be neglected if expon. factor < 0.177588E-13

          ------------------------
          nuclear repulsion energy  :   819.163266093    
          ------------------------


                  -------------------------------------------- 
                 |  HXX+RIRPA total energy     =   -522.97426642585  |
                  --------------------------------------------- 
                 :  RIRPA correlation energy   =     -3.86877669200  :
                 :  HXX total energy           =   -519.10548973385  :
                 :  Hartree energy             =   1068.39797736670  :
                 :  Exact Exchange energy      =    -73.51567927860  :
                  ............................................. 


    ------------------------------------------------------------------------
    Rirpa Energy profiling         cpu                    wall         ratio
    ------------------------------------------------------------------------
    module                         sec     %               sec     %
    ------------------------------------------------------------------------
    RIRPA_energy               1997.1  100.00          476.8  100.00   4.2
    riccmos                       4.8    0.24            0.5    0.10  10.0
    riccaux                       4.8    0.24            0.5    0.10  10.0
    riccbound                     3.3    0.17            1.2    0.25   2.8
    ccmkbaoi                    125.0    6.26           12.6    2.64   9.9
    ecrpa                      1548.2   77.52          159.0   33.35   9.7
    tread                       292.4   14.64           29.3    6.15  10.0
    tqbuild                    1047.6   52.45          108.7   22.80   9.6
    trpaln                       62.8    3.15            6.3    1.31  10.0
    ehxx                        309.7   15.51          302.6   63.48   1.0
    ------------------------------------------------------------------------
    sum                        5397.0  270.23         1097.8  230.26   4.9
    ------------------------------------------------------------------------

 residuum convergence criterium   :  0.10E-04


 integral neglect threshold       :  0.47E-11
 integral storage threshold THIZE :  0.10E-04
 integral storage threshold THIME :         5


 WARNING : cannot change filename for statistics 
  
           ------------------
           density functional
           ------------------
 PBE functional
 exchange:    LDA + PBE
 correlation: LDA (PW) + PBE
 iterations will be done with small grid
  
 spherical integration : Lebedev's spherical grid
 spherical gridsize    :           5
    i.e. gridpoints    :         590
 value for diffuse not defined
 radial integration    : Chebyshev 2nd kind (scaling 3)
 radial gridsize       :           8
 integration cells     :          31
 partition function    : becke
 partition sharpness   :           3
  
 preparing numerical integration ....
          Overall gridpoints after grid construction =        136158

 Calculating ground state density on molecular grid

 Integral of ground state density: N =   93.99994570619616    



          IRREP   tensor space dimension   number of roots

           a             27213                   1
 number of passes:    1
 
 Number of eigenvalues < 6e-3:            0
 
 
            -----------------------------
            Complex frequency integration
            -----------------------------
 
 Number of Clenshaw-Curtis nodes:          200
 Optimized scaling parameter    :    1.00000000000000     
 Sensitivity measure            :  -3.128519665551721E-011
 
 Contributions to RI integral batches: 
  neglected integral batches:        2073
  direct contribution:              25422
  memory contribution:           0

 maximum number of Davidson iterations set to   25


 logfile dipl_a    exists already

 found      1 converged vectors on dipl_a   
 read       1 vectors from logfile dipl_a   


                    ------------------

                     CPKS equations   

                    ------------------


                       Block Davidson iteration


 total number of roots to be determined:   1


 maximum core memory set to 20000 MB,
 corresponding to     5227 vectors in CAO basis


 maximum number of simultaneously treated vectors (including degeneracy):        1


 Iteration IRREP Converged      Max. Euclidean
                 roots          residual norm

    1       a        0        3.034713294339902D-03
 
    2       a        0        1.538563546667245D-04
 
    3       a        0        3.421125991290514D-05
 
    4       a        1        9.936371641837609D-06
 

 converged!


 Switching to fine grid

 preparing numerical integration ....
          Overall gridpoints after grid construction =        447469

 Calculating ground state density on molecular grid

 Integral of ground state density: N =   93.99999044560484    



 Iteration IRREP Converged      Max. Euclidean
                 roots          residual norm

    5       a        0        6.299960839881941D-05
 

 NOTE: Residual norms are larger than 1.00D-05 due to mgrid option!

 Eigenpairs written on logfile dipl_a   



 IRREP   Vector     Frequency            Euclidean residual norm

  a         1    0.000000000000000D+00    6.299960839881941D-05
 

                    -------------------

                     relaxed densities 

                    -------------------

    ----------------------------------------
     S+T+V CONTRIBUTIONS TO ENERGY GRADIENT 
    ----------------------------------------

 1e-integral 1st. derivatives will be neglected if expon. factor < 0.100000E-10


    -----------------------------------------------
     TWO ELECTRON CONTRIBUTIONS TO ENERGY GRADIENT 
    -----------------------------------------------

 setting up bound for integral derivative estimation

 increment for numerical differentiation : 0.00050000

 biggest AO integral is expected to be     4.866064444
 biggest cartesian 1st derivative AO integral is expected to be     8.879921869

 biggest 1-particle AO density matrix element is expected to be    1.9336556723

 core memory to be involved in 2e-gradient :
   symmetry shell pair data              :         1
   two particle density+dens. estimates  :     78120
   derivative integrals                  :    313877
   ij-primitive data                     :       576
   derivative integral bound             :     82485
   totally                               :    396936


 setting up bound for integral derivative estimation

 increment for numerical differentiation : 0.00050000

 biggest AO integral is expected to be     4.866064444
 biggest cartesian 1st derivative AO integral is expected to be     8.879921869

 2e-integral 1st. derivatives will be neglected if expon. factor < 0.935762E-20
 outer boundary for 2e-integral derivative neglection is 0.417115E-21

 Integrated ground state density     :   93.99999044560484    


          ------------------------------------------------
           cartesian gradient of the energy (hartree/bohr)
          ------------------------------------------------

  ATOM      1 c           2 c           3 c           4 c           5 c 
dE/dx  0.3235353D-05 -0.1018598D-05 -0.9465115D-05 -0.7675762D-05  0.2682196D-04
dE/dy -0.1271617D-05 -0.1842341D-04  0.1653255D-04 -0.1184847D-04 -0.1205916D-05
dE/dz  0.1554648D-05 -0.4567870D-05  0.1023496D-04 -0.3211081D-05 -0.3389951D-06

  ATOM      6 c           7 c           8 c           9 c          10 h 
dE/dx  0.1020825D-04  0.4802183D-05 -0.1326896D-04  0.9075781D-05  0.4451704D-05
dE/dy -0.1303404D-04  0.7514075D-05  0.1077821D-04  0.1201423D-04 -0.1957857D-05
dE/dz  0.7618386D-05 -0.2260065D-05  0.6832093D-06 -0.6239267D-05 -0.1739193D-05

  ATOM     11 h          12 h          13 h          14 h          15 h 
dE/dx  0.6285342D-06 -0.2439935D-05  0.7242300D-05  0.1174512D-06 -0.3588766D-05
dE/dy -0.6886175D-06  0.1451924D-05 -0.2841023D-05 -0.3695372D-05  0.1543309D-05
dE/dz -0.5781730D-05  0.3536946D-05  0.1651527D-05  0.2001981D-05 -0.3118291D-05

  ATOM     16 h          17 h          18 h          19 h          20 h 
dE/dx -0.6538234D-06 -0.2026486D-05 -0.2702736D-05 -0.2750473D-05  0.1029994D-05
dE/dy  0.1073022D-05  0.2836112D-05  0.1664430D-05 -0.1316464D-05  0.2858347D-05
dE/dz  0.2673489D-06 -0.4189050D-05 -0.4752000D-05  0.6997770D-06  0.6418801D-06

  ATOM     21 h          22 h          23 h          24 h          25 h 
dE/dx -0.2653628D-05  0.4906959D-06  0.2681480D-05  0.3868230D-05 -0.1686320D-05
dE/dy  0.1337967D-05  0.2891164D-05 -0.1264814D-05 -0.1397022D-05  0.1608334D-05
dE/dz -0.7393997D-06  0.1376035D-05  0.7058712D-06  0.1881321D-05  0.2626572D-05

  ATOM     26 n          27 c          28 h          29 h          30 o 
dE/dx -0.2602073D-04 -0.2955716D-05  0.1688551D-05  0.2535354D-05  0.3764232D-05
dE/dy  0.1018298D-04 -0.1349534D-04 -0.3314727D-05  0.9865558D-06 -0.5526901D-05
dE/dz  0.1242565D-04  0.1135452D-05 -0.1145655D-05  0.7750923D-06 -0.9668539D-05

  ATOM     31 h 
dE/dx -0.3670979D-05
dE/dy  0.6300613D-05
dE/dz -0.2223247D-05
 
 resulting FORCE  (fx,fy,fz) = (0.640D-07,0.292D-06,-.158D-06)
 resulting MOMENT (mx,my,mz) = (0.137D-04,0.247D-05,-.435D-05)


 **********************************************************************
  |maximum component of gradient| : 0.26821961E-04  (atom  5 c )       
   gradient norm                  : 0.66549403E-04
 **********************************************************************

 exx =      -0.000230 eyy =      -0.000203 ezz =      -0.000089
 eyz =       0.000015 exz =      -0.000022 exy =       0.000102

   ***  cartesian gradients written onto <gradient>  ***
 
 
 
 ==============================================================================
                           electrostatic moments
 ==============================================================================

 reference point for electrostatic moments:    0.00000   0.00000   0.00000

 
              nuc           gs,e       ->  gs,tot          rpa       ->  total
 ------------------------------------------------------------------------------
                          charge      
 ------------------------------------------------------------------------------
          94.000000     -94.000000      -0.000000      -0.000000      -0.000000
 
 ------------------------------------------------------------------------------
                       dipole moment  
 ------------------------------------------------------------------------------
   x      -3.471099       3.642651       0.171552      -0.017274       0.154278
   y      -0.511320       0.440130      -0.071189      -0.011940      -0.083130
   z      23.663631     -24.683727      -1.020096      -0.039969      -1.060066
 
   | dipole moment | =     1.0745 a.u. =     2.7310 debye 
 
 ------------------------------------------------------------------------------
                     quadrupole moment
 ------------------------------------------------------------------------------
  xx     646.203888    -700.280120     -54.076232      -0.247052     -54.323284
  yy     770.223889    -825.501626     -55.277737      -0.302247     -55.579984
  zz     403.241581    -466.343141     -63.101560      -0.262381     -63.363941
  xy     200.189421    -200.012816       0.176604      -0.071824       0.104780
  xz    -242.223779     242.956019       0.732240      -0.117320       0.614920
  yz    -186.137015     185.110465      -1.026550       0.077677      -0.948873
 
     1/3  trace=     -57.755737
     anisotropy=       8.707455
 
 ==============================================================================
 

    ------------------------------------------------------------------------
    Rirpa profiling                cpu                    wall         ratio
    ------------------------------------------------------------------------
    module                         sec     %               sec     %
    ------------------------------------------------------------------------
    RIRPA                     12898.6  100.00         3578.6  100.00   3.6
    RIRPA_energy               1997.1   15.48          476.8   13.32   4.2
    ccmkbaoi                    125.0    0.97           12.6    0.35   9.9
    ecrpa                      1548.2   12.00          159.0    4.44   9.7
    tread                       292.4    2.27           29.3    0.82  10.0
    tqbuild                    1047.6    8.12          108.7    3.04   9.6
    trpaln                       62.8    0.49            6.3    0.17  10.0
    ehxx                        309.7    2.40          302.6    8.46   1.0
    RIRPA_grad                10901.4   84.52         3101.9   86.68   3.5
    SETUP_grad                   33.0    0.26            3.8    0.11   8.7
    rirhs                      7490.8   58.07          771.5   21.56   9.7
    respon                      518.9    4.02           76.6    2.14   6.8
    rparelax                    251.9    1.95           30.5    0.85   8.3
    egdfin                     2483.0   19.25         2205.6   61.63   1.1
    ------------------------------------------------------------------------
    sum                       39974.5  309.91        10866.4  303.65   3.7
    ------------------------------------------------------------------------


    ------------------------------------------------------------------------
         total  cpu-time :  3 hours 34 minutes and 59 seconds
         total wall-time : 59 minutes and 39 seconds
    ------------------------------------------------------------------------


   ****  rirpa : all done  ****


    2016-02-06 17:07:59.846 

                                 ****   rirpa : all done  ****
fine, there is no data group "$actual step"
script actual: unknown actual step rirpa
next step = unknown
 energy change  : actual value =   0.1300E-08 threshold =   0.1000E-06
 geom. gradient : actual value =   0.8829E-04 threshold =   0.1000E-03

CONVERGENCY CRITERIA FULFILLED IN CYCLE 19

