 operating system is UNIX !

 ridft (c-18-414.gp.local) : TURBOMOLE V7.2 ( 21454 ) 4 Oct 2017 at 12:48:15
 Copyright (C) 2017 TURBOMOLE GmbH, Karlsruhe


    2018-05-19 18:08:42.607 



                                  r i d f t

                        DFT program with RI approximation 
                                for coulomb part 




                                                 
                                 References:     
                                                 
          TURBOMOLE:                             
              R. Ahlrichs, M. Baer, M. Haeser, H. Horn, and
              C. Koelmel
              Electronic structure calculations on workstation
              computers: the program system TURBOMOLE
              Chem. Phys. Lett. 162: 165 (1989)
          Density Functional:                              
              O. Treutler and R. Ahlrichs                      
              Efficient Molecular Numerical Integration Schemes
              J. Chem. Phys. 102: 346 (1995)                   
          Parallel Version:                                
              Performance of parallel TURBOMOLE for Density    
              Functional Calculations                          
              M. v. Arnim and R. Ahlrichs                      
              J. Comp. Chem. 19: 1746 (1998)                   
          RI-J Method:                                     
              Auxiliary Basis Sets to approximate Coulomb      
              Potentials                                       
              Chem. Phys. Lett. 240: 283 (1995)                
              K. Eichkorn, O. Treutler, H. Oehm, M. Haeser     
              and R. Ahlrichs                                  
              Chem. Phys. Lett. 242: 652 (1995)                
                                                           
              Auxiliary Basis Sets for Main Row Atoms and their
              Use to approximate Coulomb Potentials            
              K. Eichkorn, F. Weigend, O. Treutler and         
              R. Ahlrichs                                      
              Theo. Chem. Acc. 97: 119 (1997)                   
                                                           
              Accurate Coulomb-fitting basis sets for H to Rn 
              F. Weigend                                        
              Phys. Chem. Chem. Phys. 8: 1057 (2006)            
                                                           
          Multipole accelerated RI-J (MARI-J):             
              Fast evaluation of the Coulomb potential for     
              electron densities using multipole accelerated   
              resolution of identity approximation             
              M. Sierka, A. Hogekamp and R. Ahlrichs           
              J. Chem. Phys. 118: 9136 (2003)                  
          RI-JK Method:                                     
              A fully direct RI-HF algorithm: Implementation,
              optimised auxiliary basis sets, demonstration of
              accuracy and efficiency                         
              F. Weigend                                      
              Phys. Chem. Chem. Phys. 4: 4285 (2002)           
          Two-component HF and DFT with spin-orbit coupling:  
              Self-consistent treatment of spin-orbit         
              interactions with efficient Hartree-Fock and    
              density functional methods                      
              M. K. Armbruster, F. Weigend, C. van Wüllen and 
              W. Klopper                                      
              Phys. Chem. Chem. Phys. 10: 1748 (2008)         
          Relativistic all-electron 2c calculations           
              An efficient implementation of two-component    
              relativistic exact-decoupling methods for large 
              molecules                                       
              D. Peng, N. Middendorf, F. Weigend, M. Reiher   
              J. Chem. Phys. 138, 184105 (2013)               
                                         




              +--------------------------------------------------+
              |      general information about current run       |
              +--------------------------------------------------+

 
 A HF calculation using the RI-JK approximation will be carried out.
 Allocatable memory for RI due to $ricore (MB):                   500


              +--------------------------------------------------+
              | Atomic coordinate, charge and isotop information |
              +--------------------------------------------------+

                    atomic coordinates            atom    charge  isotop
         -4.78725956   -0.55724068    1.34765584    c      6.000     0
         -4.84455260   -1.84641703   -0.25780143    h      1.000     0
         -4.85088607   -1.69296010    3.06462890    h      1.000     0
         -6.49012477    0.59707245    1.29277010    h      1.000     0
         -2.40351407    1.05381611    1.27434566    c      6.000     0
         -2.40189162    2.37456507    2.86164895    h      1.000     0
         -2.39358863    2.20700324   -0.43808865    h      1.000     0
         -0.00025519   -0.52613418    1.35985287    c      6.000     0
         -0.00030118   -1.67662080    3.07767806    h      1.000     0
         -0.00069055   -1.85328122   -0.22564160    h      1.000     0
          2.40353277    1.05329968    1.27379084    c      6.000     0
          2.40178854    2.37469281    2.86048867    h      1.000     0
          2.39359608    2.20565528   -0.43914765    h      1.000     0
          4.78743929   -0.55735915    1.34790414    c      6.000     0
          4.84510509   -1.84772527   -0.25658392    h      1.000     0
          6.48990451    0.59763405    1.29181575    h      1.000     0
          4.85198184   -1.69169959    3.06575684    h      1.000     0
 
       center of nuclear mass  :   -0.00000469    0.07411765    1.32139449
       center of nuclear charge:    0.00000000    0.06062404    1.32187667

              +--------------------------------------------------+
              |               basis set information              |
              +--------------------------------------------------+

              we will work with the 1s 3p 5d 7f 9g ... basis set
              ...i.e. with spherical basis functions...

   type   atoms  prim   cont   basis
   ---------------------------------------------------------------------------
    c        5     77     57   def2-QZVP   [7s4p3d2f1g|15s8p3d2f1g]
    h       12     33     30   def2-QZVP   [4s3p2d1f|7s3p2d1f]
   ---------------------------------------------------------------------------
   total:   17    781    645
   ---------------------------------------------------------------------------

   total number of primitive shells          :   42
   total number of contracted shells         :  205
   total number of cartesian basis functions :  780
   total number of SCF-basis functions       :  645


 integral neglect threshold       :  0.43E-13
 integral storage threshold THIZE :  0.10E-04
 integral storage threshold THIME :         5

 RI-JK AUXILIARY BASIS SET information:

              we will work with the 1s 3p 5d 7f 9g ... basis set
              ...i.e. with spherical basis functions...

   type   atoms  prim   cont   basis
   ---------------------------------------------------------------------------
    c        5     97     75   def2-QZVP   [10s8p5d1f1g|14s10p6d2f1g]
    h       12     20     18   def2-QZVP   [2s2p2d|4s2p2d]
   ---------------------------------------------------------------------------
   total:   17    725    591
   ---------------------------------------------------------------------------

   total number of primitive shells          :   41
   total number of contracted shells         :  197
   total number of cartesian basis functions :  685
   total number of SCF-basis functions       :  591


 symmetry group of the molecule :   c1 

 the group has the following generators :
   c1(z)

    1 symmetry operations found

 there are 1 real representations :   a   

 maximum number of shells which are related by symmetry :  1


    mo occupation :
   irrep   mo's   occupied
    a      645       21
 
 number of basis functions   :                    645
 number of occupied orbitals :                     21
 

 biggest AO integral is expected to be     5.262544080
  
           ------------------------
               RI-JK - INFORMATION
           ------------------------
 Contributions to RI integral batches: 
  neglected integral batches:                  3295
  direct contribution:                        15311
  memory contribution:                  2509
 Memory core needed for (P|Q) and Cholesky      3 MByte
 Memory core minimum needed except of (P|Q)     1 MByte
 Total minimum memory core needed (sum)         3 MByte
  
 ****************************************
 Memory allocated for RI-J    45 MByte
 ****************************************
                                            
 total memory allocated for calculation of  (Q|P)**(-1/2) :    5 MiB

  forming (P|Q)**(-1/2) 
 eigenvalues of original matrix 
 smallest =0.1916397439204E-06  largest = 29.82174607167    
  The symmetry information takes                      1  MB

          ------------------------
          nuclear repulsion energy  :   185.636650021    
          ------------------------


         -----------------
         -S,T+V- integrals
         -----------------

 1e-integrals will be neglected if expon. factor < 0.428457E-14
 
   Difference densities algorithm switched on.
   The maximal number of linear combinations of
   difference densities is                    20 .

 DIIS switched on: error vector is FDS-SDF
 Max. Iterations for DIIS is     :   5
 DIIS matrix (see manual) 
    Scaling factor of diagonals  :  1.200
    threshold for scaling factor :  0.000

 scf convergence criterion : increment of total energy < .1000000D-08
                  and increment of one-electron energy < .1000000D-05

  MOs are in ASCII format !


 automatic virtual orbital shift switched on 
      shift if e(lumo)-e(homo) < 0.10000000    


 reading orbital data $scfmo  from file mos
 orbital characterization : scfconv=9

 DSCF restart information will be dumped onto file mos


 Starting SCF iterations

 
 BLOCKING OF MOS FOR RI-K
 
 
 occupied MOs partitioned into blocks of maximum length 21
 this requires 75 MiB core memory.
 
            MULTIPLE PASS Statistics 
 ----------------------------------------------------
  pass       irrep     lambda      batch : MO  to  MO
 ----------------------------------------------------
   1       1  ->  1    1  -> 21             1  ->  21



 ITERATION  ENERGY          1e-ENERGY        2e-ENERGY     NORM[dD(SAO)]  TOL
   1  -196.38623688622    -631.71646471     249.69357780    0.000D+00 0.427D-13
                           RI-K = -30.2610924068     Coul =  279.954670210    
                            current damping = 0.700
 
          max. resid. norm for Fia-block=  8.073D-02 for orbital      3a         
          max. resid. fock norm         =  5.413D-01 for orbital    640a         

 End of SCF iterations

   convergence criteria cannot be satisfied within     1 iterations !


                  ------------------------------------------ 
                 |  total energy      =   -196.38623688622  |
                  ------------------------------------------ 
                 :  kinetic energy    =    196.94972754689  :
                 :  potential energy  =   -393.33596443311  :
                 :  virial theorem    =      2.00286929812  :
                 :  wavefunction norm =      1.00000000000  :
                  .......................................... 


 ATTENTION : $energy will not be updated since 
 this calculation did not converge (sob) 

 A POSSIBLE REASON MAY BE THAT ...
 - THE GEOMETRY IS FAR FROM BEING REASONABLE

    irrep                 17a         18a         19a         20a         21a   
 eigenvalues H         -0.41558    -0.39930    -0.38539    -0.38384    -0.36890
            eV         -11.3087    -10.8656    -10.4871    -10.4449    -10.0384
 occupation              2.0000      2.0000      2.0000      2.0000      2.0000 

    irrep                 22a         23a         24a         25a         26a   
 eigenvalues H          0.07371     0.08033     0.08798     0.09517     0.11094
            eV           2.0058      2.1860      2.3941      2.5897      3.0190
 
 
 
 
 ==============================================================================
                           electrostatic moments
 ==============================================================================

 reference point for electrostatic moments:    0.00000   0.00000   0.00000

 
              nuc           elec       ->  total
 ------------------------------------------------------------------------------
                          charge      
 ------------------------------------------------------------------------------
          42.000000     -42.000000      -0.000000
 
 ------------------------------------------------------------------------------
                       dipole moment  
 ------------------------------------------------------------------------------
   x       0.000000       0.000009       0.000009
   y       2.546210      -2.510904       0.035306
   z      55.518820     -55.520449      -0.001628
 
   | dipole moment | =     0.0353 a.u. =     0.0898 debye 
 
 ------------------------------------------------------------------------------
                     quadrupole moment
 ------------------------------------------------------------------------------
  xx     545.602050    -573.070396     -27.468346
  yy      59.231893     -86.081754     -26.849860
  zz     100.914703    -126.830072     -25.915369
  xy      -0.011476       0.011319      -0.000157
  xz       0.000363      -0.000434      -0.000071
  yz       1.831397      -1.737886       0.093510
 
     1/3  trace=     -26.744525
     anisotropy=       1.363819
 
 ==============================================================================
 

 ATTENTION: ridft did not converge! 



    ------------------------------------------------------------------------
         total  cpu-time :  11.05 seconds
         total wall-time :  11.14 seconds
    ------------------------------------------------------------------------

   ****  ridft : all done  ****


    2018-05-19 18:08:53.738 

