
   OpenMP run-time library returned nthreads =  8

 ricc2 (c-16-19.local) : TURBOMOLE V7.2 ( 21471 ) 11 Oct 2017 at 17:04:51
 Copyright (C) 2017 TURBOMOLE GmbH, Karlsruhe


    2018-04-03 13:44:41.798 



                              R I C C 2 - PROGRAM

                          the quantum chemistry groups
                             at the universities in
                           Karlsruhe, Bochum & Mainz
                                   Germany



   *-----------------------------------------------------------------------*
   |                     program will use  8 thread(s)                     |
   *-----------------------------------------------------------------------*


              +--------------------------------------------------+
              | Atomic coordinate, charge and isotop information |
              +--------------------------------------------------+

                    atomic coordinates            atom    charge  isotop
          1.95806938   -1.08805188    1.63099956    c      6.000     0
         -2.17818590    1.15171721    1.26777472    c      6.000     0
         -1.95806679    1.08805592   -1.63100045    c      6.000     0
          2.17818930   -1.15171365   -1.26777487    c      6.000     0
         -0.49977414   -1.31076461   -2.38967456    c      6.000     0
          0.49977657    1.31076905    2.38967485    c      6.000     0
          2.07299215    3.59061736   -1.46596002    c      6.000     0
         -2.07299085   -3.59061677    1.46596121    c      6.000     0
         -1.84460766   -3.70855718   -1.42580744    c      6.000     0
          1.84460264    3.70856514    1.42580694    c      6.000     0
          0.58137303   -3.45179822    2.63362201    c      6.000     0
         -0.58136696    3.45179752   -2.63362890    c      6.000     0
         -3.57623810   -1.22240557    2.21487437    c      6.000     0
          3.57624547    1.22240911   -2.21486714    c      6.000     0
         -3.25678849   -6.31622308    5.30703730    c      6.000     0
          3.25706436    6.31603771   -5.30707711    c      6.000     0
         -2.42555838   -8.43134827    1.30139619    c      6.000     0
          2.42533468    8.43137013   -1.30164740    c      6.000     0
         -6.28424327   -5.97804932    1.85284542    c      6.000     0
          6.28418225    5.97820076   -1.85255424    c      6.000     0
          3.49608810    6.05516334   -2.47201752    n      7.000     0
         -3.49608807   -6.05516346    2.47201739    n      7.000     0
          3.85136815   -1.05007396    2.47204499    h      1.000     0
         -3.85136520    1.05007735   -2.47204656    h      1.000     0
         -0.38598498   -1.43185187   -4.45520911    h      1.000     0
          0.38598632    1.43185614    4.45520931    h      1.000     0
         -3.27580715    2.81056864    1.84894547    h      1.000     0
          3.27581040   -2.81056556   -1.84894441    h      1.000     0
          0.47312205   -3.31119719    4.69312775    h      1.000     0
         -0.47311036    3.31118813   -4.69313408    h      1.000     0
         -5.45950214   -1.24579924    1.36292788    h      1.000     0
          5.45950565    1.24580320   -1.36291156    h      1.000     0
         -0.73364608   -5.35124470   -2.01009379    h      1.000     0
          0.73363313    5.35124955    2.01008792    h      1.000     0
          3.70794599    3.84709391    2.31694143    h      1.000     0
         -3.70795234   -3.84707293   -2.31694078    h      1.000     0
         -1.69223732    5.13466636   -2.16461202    h      1.000     0
          1.69224640   -5.13466147    2.16459343    h      1.000     0
          3.80442778    1.10184492   -4.26910714    h      1.000     0
         -3.80440872   -1.10183579    4.26911514    h      1.000     0
         -1.32084609   -6.81910095    5.78426119    h      1.000     0
          1.32115503    6.81883413   -5.78452433    h      1.000     0
         -7.20203817   -4.55332505    3.01759182    h      1.000     0
          7.20216002    4.55346516   -3.01714425    h      1.000     0
         -2.95949863   -8.51430414   -0.68274433    h      1.000     0
          2.95909379    8.51448087    0.68253607    h      1.000     0
          3.79855548    4.54502082   -6.20386870    h      1.000     0
         -3.79814674   -4.54525065    6.20399697    h      1.000     0
          0.37841186    8.43379568   -1.51232233    h      1.000     0
         -0.37861719   -8.43389411    1.51189005    h      1.000     0
          6.52809765    5.56078034    0.14761826    h      1.000     0
         -6.52834906   -5.56053419   -0.14728405    h      1.000     0
         -4.53468771   -7.81958634    5.90250944    h      1.000     0
          4.53498438    7.81939554   -5.90251928    h      1.000     0
         -3.23282242  -10.03818764    2.30844051    h      1.000     0
          3.23260535   10.03818588   -2.30872472    h      1.000     0
         -7.06693138   -7.83657653    2.27832656    h      1.000     0
          7.06683286    7.83674446   -2.27803309    h      1.000     0
 
       center of nuclear mass  :    0.00000034    0.00000040    0.00000001
       center of nuclear charge:    0.00000027    0.00000033    0.00000001

              +--------------------------------------------------+
              |               basis set information              |
              +--------------------------------------------------+

              we will work with the 1s 3p 5d 7f 9g ... basis set
              ...i.e. with spherical basis functions...

   type   atoms  prim   cont   basis
   ---------------------------------------------------------------------------
    c       20     77     55   cc-pVQZ   [5s4p3d2f1g|21s6p3d2f1g]
    n        2     77     55   cc-pVQZ   [5s4p3d2f1g|21s6p3d2f1g]
    h       36     32     30   cc-pVQZ   [4s3p2d1f|6s3p2d1f]
   ---------------------------------------------------------------------------
   total:   58   2846   2290
   ---------------------------------------------------------------------------

   total number of primitive shells          :   78
   total number of contracted shells         :  690
   total number of cartesian basis functions : 2800
   total number of SCF-basis functions       : 2290


 symmetry group of the molecule :   c1 

 the group has the following generators :
   c1(z)

    1 symmetry operations found

 there are 1 real representations :   a   


   =========================================================================


     restricted closed shell calculation for the wavefunction models:
               MP2        - Second Order Moeller Plesset PT


     global parameters for ricc2 program:

        hard restart (reuse of interm.) :  disabled
        soft restart (reuse of vectors) :  disabled
        threshold for vector function   :    0.100000E-05
        convergence threshold energy    :    0.100000E-06
        linear dependence threshold     :    0.100000E-13
        global print level              :      1
        maximum number of iterations    :   300
        maximum number DIIS vectors     :    10
        max. dim. of reduced space      :   100
        core memory limit (MB)          : 15258


     MP2 energy only: Energy will be calculated directly from T2 amplitudes!

     Scratch Directory : 


   =========================================================================

    der. integral neglect threshold  :  0.10E-07
    integral neglect threshold       :  0.12E-11
    integral storage threshold THIZE :  0.10E-04
    integral storage threshold THIME :         5


                  +------------------------------------------+
                  |     Auxiliary basis set information      |
                  +------------------------------------------+

              we will work with the 1s 3p 5d 7f 9g ... basis set
              ...i.e. with spherical basis functions...

   type   atoms  prim   cont   basis
   ---------------------------------------------------------------------------
    c       20    132    132   cc-pVQZ   [8s7p6d5f3g1h|8s7p6d5f3g1h]
    n        2    132    132   cc-pVQZ   [8s7p6d5f3g1h|8s7p6d5f3g1h]
    h       36     55     55   cc-pVQZ   [5s4p3d2f1g|5s4p3d2f1g]
   ---------------------------------------------------------------------------
   total:   58   4884   4884
   ---------------------------------------------------------------------------

   total number of primitive shells          :   75
   total number of contracted shells         : 1200
   total number of cartesian basis functions : 6502
   total number of SCF-basis functions       : 4884


 maximum number of shells which are related by symmetry :  1


 The symmetry information takes   1 MB

*---------------------------------------------------------------------*
|               simplified C1 algorithm will be applied               |
*---------------------------------------------------------------------*
  MOs are in ASCII format !


 reading orbital data $scfmo  from file mos
 orbital characterization : scfconv=9



              +--------------------------------------------+
              | list of orbitals that will be kept frozen: |
              +--------------------------------------------+
              |   irrep   index      energy     occ/vir    |
              +--------------------------------------------+
              |   a         1      -15.9123     occupied   |
              |   a         2      -15.9123     occupied   |
              |   a         3      -11.5280     occupied   |
              |   a         4      -11.5280     occupied   |
              |   a         5      -11.5010     occupied   |
              |   a         6      -11.5010     occupied   |
              |   a         7      -11.5010     occupied   |
              |   a         8      -11.5010     occupied   |
              |   a         9      -11.5009     occupied   |
              |   a        10      -11.5009     occupied   |
              |   a        11      -11.4558     occupied   |
              |   a        12      -11.4558     occupied   |
              |   a        13      -11.4558     occupied   |
              |   a        14      -11.4558     occupied   |
              |   a        15      -11.4558     occupied   |
              |   a        16      -11.4558     occupied   |
              |   a        17      -11.4522     occupied   |
              |   a        18      -11.4519     occupied   |
              |   a        19      -11.4519     occupied   |
              |   a        20      -11.4513     occupied   |
              |   a        21      -11.4513     occupied   |
              |   a        22      -11.4510     occupied   |
              +--------------------------------------------+



   Molecular Orbital Statistic:
   ============================

   -----------------------------
   orbitals in total:
   -----------------------------
    frozen occupied :     22
    active occupied :     62
    active virtual  :   2206
    frozen virtual  :      0
    all together    :   2290
   -----------------------------


     time in riccmos       cpu: 13.83 sec    wall:  6.93 sec    ratio:  2.0

     total memory allocated for calculation of (Q|P)**(-1/2) : 274 MiB


     calculation of (P|Q) ...
     time in lp2sym        cpu:  6.32 sec    wall:  0.83 sec    ratio:  7.6


     calculation of the Cholesky decomposition of (P|Q)**(-1) ...
     time in invmetri      cpu: 32.25 sec    wall:  5.06 sec    ratio:  6.4

   threshold for RMS(d[D]) in SCF was     :  0.10E-06
   integral neglect threshold             :  0.12E-11
   derivative integral neglect threshold  :  0.10E-07


   =========================================================================

     Energy of reference wave function is  -887.0772266528001
     Maximum orbital residual is           0.7827856820128E-06


     Number of symmetry-nonredundant auxiliary basis functions:     4884

     Block lengths for integral files:
        frozen occupied (BOI):        1 MiB
        active occupied (BJI):        3 MiB
        active virtual  (BAI):       83 MiB
        frozen virtual  (BGI):        0 MiB
               general  (BTI):       86 MiB

   =========================================================================




   **************************************************************************
   *                                                                        *
   *          OPTIMIZATION OF THE GROUND STATE CLUSTER AMPLITUDES           *
   *                                                                        *
   **************************************************************************


   Iter.   MP2 energy       Norm(Omega)    Norm(t1)  Norm(t2)     cpu    wall
   ...........................................................................
    1   -891.1629890379     ------          0.00000   0.66992  176.47   24.40
   ...........................................................................


     time in total         cpu:  2 h 56 min  wall:  0 h 24 min  ratio:  7.2


     **********************************************************************
     *                                                                    *
     *   RHF  energy                             :   -887.0772266528      *
     *   MP2 correlation energy (doubles)        :     -4.0857623851      *
     *                                                                    *
     *   Final MP2 energy                        :   -891.1629890379      *
     *                                                                    *
     *    E(S)   =     -2.6603579780      E(T)   =     -1.4254044071      *
     *    E(OS)  =     -3.1354927803      E(SS)  =     -0.9502696048      *
     *                                                                    *
     *   SCS-MP2 energy                          :   -891.1565745241      *
     *   (computed with  C(OS) =   1.2000  and  C(SS) =   0.3333)         *
     *                                                                    *
     *   SOS-MP2 energy                          :   -891.1533672673      *
     *   (computed with  C(OS) =   1.3000)                                *
     *                                                                    *
     *   Norm of MP1 T2 amplitudes               :      0.6699209944      *
     *                                                                    *
     **********************************************************************



    ------------------------------------------------------------------------
         total  cpu-time :  3 hours 40 minutes and  5 seconds
         total wall-time : 30 minutes and 37 seconds
    ------------------------------------------------------------------------

   ****  ricc2 : all done  ****


    2018-04-03 14:15:18.271 

