
 eiger (gplogin1.local) : TURBOMOLE V7.2 ( 21285 ) 30 Jun 2017 at 11:51:10
 Copyright (C) 2017 TURBOMOLE GmbH, Karlsruhe


    2017-11-10 01:13:42.216 

                                                                                
  
 HOMO-LUMO Separation
   HOMO:    52.    52 a     -0.25650566 H =     -6.97988 eV
   LUMO:    53.    53 a     -0.20124299 H =     -5.47610 eV
   Gap :                    +0.05526267 H =     +1.50377 eV
 
Number of MOs=   1032, Electrons=    104.00, Symmetry: c1   
 
   Nr.   Orbital    Occupation       Energy
   69.    69 a                     +0.059719 H =        +1.625 eV
   68.    68 a                     +0.048085 H =        +1.308 eV
   67.    67 a                     +0.036920 H =        +1.005 eV
   66.    66 a                     +0.023425 H =        +0.637 eV
   65.    65 a                     +0.010928 H =        +0.297 eV
   64.    64 a                     +0.006558 H =        +0.178 eV
   63.    63 a                     +0.004706 H =        +0.128 eV
   62.    62 a                     -0.008099 H =        -0.220 eV
   61.    61 a                     -0.020593 H =        -0.560 eV
   60.    60 a                     -0.023866 H =        -0.649 eV
   59.    59 a                     -0.030138 H =        -0.820 eV
   58.    58 a                     -0.034794 H =        -0.947 eV
   57.    57 a                     -0.068564 H =        -1.866 eV
   56.    56 a                     -0.073844 H =        -2.009 eV
   55.    55 a                     -0.098151 H =        -2.671 eV
   54.    54 a                     -0.101414 H =        -2.760 eV
   53.    53 a                     -0.201243 H =        -5.476 eV
   52.    52 a        2.000        -0.256506 H =        -6.980 eV
   51.    51 a        2.000        -0.306038 H =        -8.328 eV
   50.    50 a        2.000        -0.322283 H =        -8.770 eV
   49.    49 a        2.000        -0.337872 H =        -9.194 eV
   48.    48 a        2.000        -0.338884 H =        -9.222 eV
   47.    47 a        2.000        -0.347925 H =        -9.468 eV
   46.    46 a        2.000        -0.350193 H =        -9.529 eV
   45.    45 a        2.000        -0.350463 H =        -9.537 eV
   44.    44 a        2.000        -0.351894 H =        -9.576 eV
   43.    43 a        2.000        -0.360391 H =        -9.807 eV
   42.    42 a        2.000        -0.360677 H =        -9.815 eV
   41.    41 a        2.000        -0.367069 H =        -9.988 eV
   40.    40 a        2.000        -0.367433 H =        -9.998 eV
   39.    39 a        2.000        -0.374048 H =       -10.178 eV
   38.    38 a        2.000        -0.379437 H =       -10.325 eV
   37.    37 a        2.000        -0.413354 H =       -11.248 eV


    ------------------------------------------------------------------------
         total  cpu-time :   0.78 seconds
         total wall-time :   0.87 seconds
    ------------------------------------------------------------------------

   ****  eiger : all done  ****


    2017-11-10 01:13:43.070 

