 this is node-proc. number 0 running on node c-5-16.local
 the total number of node-proc. spawned is  33

 dscfserver (c-5-16.local) : TURBOMOLE V7.2 ( 21471 ) 7 Nov 2017 at 16:15:16
 Copyright (C) 2017 TURBOMOLE GmbH, Karlsruhe


    2018-02-20 11:21:06.727 

 
    0:07:35 ---- Start global counter...
    2:32:46 ---- ... finished.
 
    2:38:02 ---- Start global counter...
    4:46:11 ---- ... finished.
 
    4:51:29 ---- Start global counter...
    6:58:44 ---- ... finished.
 
    7:03:56 ---- Start global counter...
    8:59:18 ---- ... finished.
 
    9:04:33 ---- Start global counter...
   10:49:19 ---- ... finished.
 
   10:56:46 ---- Start global counter...
   12:29:48 ---- ... finished.
 
   12:35:08 ---- Start global counter...
   13:55:24 ---- ... finished.
 
   14:00:46 ---- Start global counter...
   15:09:15 ---- ... finished.
 
   15:14:38 ---- Start global counter...
   16:17:47 ---- ... finished.
 
   16:23:11 ---- Start global counter...
   17:16:55 ---- ... finished.
 
   17:24:26 ---- Start global counter...
   18:13:36 ---- ... finished.
 
   18:19:08 ---- Start global counter...
   19:02:31 ---- ... finished.
 
   19:08:06 ---- Start global counter...
   19:47:44 ---- ... finished.
 
   19:53:10 ---- Start global counter...
   20:27:24 ---- ... finished.
 
   20:31:20 ---- ByeBye Tag received


 ! Total wall-clock time in seconds  :    73879.7
 ! Time (sec) spent in global counter:    68745.6
 ! So-called SERIAL wall-clock time  :     5134.1

  *** Regular termination of server ***
 total turnaround time of dscfserver 73882.34 sec
 cpu elapsed by dscfserver process   68797.66 sec 

   ***  dscf server : all done  ***


    2018-02-21 07:52:29.070 

