
   OpenMP run-time library returned nthreads = 20
 operating system is UNIX !

 dscf (c-19-413) : TURBOMOLE V7.3 ( 22142 ) 4 Jul 2018 at 18:12:42
 Copyright (C) 2018 TURBOMOLE GmbH, Karlsruhe


    2019-03-02 21:36:57.186 



                             d s c f - program

                   idea & directorship : reinhart ahlrichs
                   program development : marco haeser
                                         michael baer
                           dft version : oliver treutler


                          quantum chemistry group
                          universitaet  karlsruhe
                                  germany




                          References             
                                                 
          TURBOMOLE:                             
              R. Ahlrichs, M. Baer, M. Haeser, H. Horn, and
              C. Koelmel
              Electronic structure calculations on workstation
              computers: the program system TURBOMOLE
              Chem. Phys. Lett. 162: 165 (1989)
          Density Functional:                              
              O. Treutler and R. Ahlrichs                      
              Efficient Molecular Numerical Integration Schemes
              J. Chem. Phys. 102: 346 (1995)                   
          Parallel Version:                                
              Performance of parallel TURBOMOLE for Density    
              Functional Calculations                          
              M. v. Arnim and R. Ahlrichs                      
              J. Comp. Chem. 19: 1746 (1998)                   
                                         



 UHF mode switched on !


              +--------------------------------------------------+
              | Atomic coordinate, charge and isotop information |
              +--------------------------------------------------+

                    atomic coordinates            atom    charge  isotop
          0.00000000    2.72160412    0.00000000    c      6.000     0
         -2.39309898    1.27041829    0.00000000    c      6.000     0
         -2.39309898   -1.27041829    0.00000000    c      6.000     0
          0.00000000   -2.72160412    0.00000000    c      6.000     0
          2.39309898   -1.27041829    0.00000000    c      6.000     0
          2.39309898    1.27041829    0.00000000    c      6.000     0
          0.00000000    5.04754954    0.00000000    o      8.000     0
          0.00000000   -5.04754954    0.00000000    o      8.000     0
         -4.11977267    2.38185100    0.00000000    h      1.000     0
         -4.11977267   -2.38185100    0.00000000    h      1.000     0
          4.11977267   -2.38185100    0.00000000    h      1.000     0
          4.11977267    2.38185100    0.00000000    h      1.000     0
 
       center of nuclear mass  :    0.00000000    0.00000000    0.00000000
       center of nuclear charge:    0.00000000    0.00000000    0.00000000

              +--------------------------------------------------+
              |               basis set information              |
              +--------------------------------------------------+

              we will work with the 1s 3p 5d 7f 9g ... basis set
              ...i.e. with spherical basis functions...

   type   atoms  prim   cont   basis
   ---------------------------------------------------------------------------
    c        6     77     57   def2-QZVP   [7s4p3d2f1g|15s8p3d2f1g]
    o        2     77     57   def2-QZVP   [7s4p3d2f1g|15s8p3d2f1g]
    h        4     33     30   def2-QZVP   [4s3p2d1f|7s3p2d1f]
   ---------------------------------------------------------------------------
   total:   12    748    576
   ---------------------------------------------------------------------------

   total number of primitive shells          :   71
   total number of contracted shells         :  176
   total number of cartesian basis functions :  716
   total number of SCF-basis functions       :  576


 integral neglect threshold       :  0.47E-13
 integral storage threshold THIZE :  0.10E-04
 integral storage threshold THIME :         5


 DENSITY CONVERGENCE CHECK SWITCHED ON !
 SCF CONVERGENCE IF RMS(delta[D]) <     0.1000000000E-06


 symmetry group of the molecule :   c1 

 the group has the following generators :
   c1(z)

    1 symmetry operations found

 there are 1 real representations :   a   

 maximum number of shells which are related by symmetry :  1


    mo occupation :
   irrep   mo's   occupied
    a      576       28
 
 number of basis functions   :                    576
 number of occupied orbitals :                     28
 

 automatic virtual orbital shift switched on 
      shift if e(lumo)-e(homo) < 0.10000000    


          ------------------------
          nuclear repulsion energy  :   322.101072967    
          ------------------------


         -----------------
         -S,T+V- integrals
         -----------------

 1e-integrals will be neglected if expon. factor < 0.466754E-14
 
   Difference densities algorithm switched on.
   The maximal number of linear combinations of
   difference densities is                    20 .

 DIIS switched on: error vector is FDS-SDF
 Max. Iterations for DIIS is     :   5
 DIIS matrix (see manual) 
    Scaling factor of diagonals  :  1.200
    threshold for scaling factor :  0.000

 scf convergence criterion : increment of total energy < .1000000D-08
                  and increment of one-electron energy < .1000000D-05

  MOs are in ASCII format !


 reading orbital data $uhfmo_alpha  from file alpha
 orbital characterization : scfconv=9

 reading orbital data $uhfmo_beta  from file beta
 orbital characterization : scfconv=9

 DSCF restart information will be dumped onto file alpha

 
                                              current damping :  0.300
 ITERATION  ENERGY          1e-ENERGY        2e-ENERGY     RMS[dD(SAO)]   TOL
   1  -379.33648847324    -1154.0525501     452.61498869    0.000D+00 0.466D-13
          max. resid. norm for Fia-block=  8.192D-02 for orbital     26a    alpha
          max. resid. fock norm         =  9.853D-02 for orbital     26a    alpha
          Delta Eig. =     5.3145028048 eV 
 
                                              current damping :  0.250
 ITERATION  ENERGY          1e-ENERGY        2e-ENERGY     RMS[dD(SAO)]   TOL
   2  -379.37204020446    -1154.4570479     452.98393469    0.225D-02 0.343D-13
          Norm of current diis error: 0.37609    
          max. resid. norm for Fia-block=  5.414D-02 for orbital     27a    beta 
          max. resid. fock norm         =  6.131D-02 for orbital     27a    beta 
          Delta Eig. =     2.1796123446 eV 
 
                                              current damping :  0.100
 ITERATION  ENERGY          1e-ENERGY        2e-ENERGY     RMS[dD(SAO)]   TOL
   3  -379.38353098130    -1154.4907083     453.00610432    0.730D-03 0.247D-13
          Norm of current diis error: 0.18122    
          max. resid. norm for Fia-block=  4.147D-02 for orbital     26a    beta 
          max. resid. fock norm         =  4.326D-02 for orbital     26a    beta 
          Delta Eig. =     0.7104170538 eV 
 
                                              current damping :  0.150
 ITERATION  ENERGY          1e-ENERGY        2e-ENERGY     RMS[dD(SAO)]   TOL
   4  -379.38943613204    -1154.4876311     452.99712198    0.497D-03 0.193D-13
          Norm of current diis error: 0.76211E-01
          max. resid. norm for Fia-block=  2.206D-02 for orbital     25a    beta 
          max. resid. fock norm         =  2.284D-02 for orbital     25a    beta 
          Delta Eig. =     0.3584225128 eV 
 
                                              current damping :  0.200
 ITERATION  ENERGY          1e-ENERGY        2e-ENERGY     RMS[dD(SAO)]   TOL
   5  -379.39064308350    -1154.5292830     453.03756696    0.139D-03 0.175D-13
          Norm of current diis error: 0.31807E-01
          max. resid. norm for Fia-block=  8.372D-03 for orbital     25a    beta 
          max. resid. fock norm         =  8.686D-03 for orbital     25a    beta 
 mo-orthogonalization: Cholesky decomposition
          Delta Eig. =     0.0933695082 eV 
 
                                              current damping :  0.250
 ITERATION  ENERGY          1e-ENERGY        2e-ENERGY     RMS[dD(SAO)]   TOL
   6  -379.39086586990    -1154.5217321     453.02979331    0.299D-04 0.166D-13
          Norm of current diis error: 0.17596E-01
          max. resid. norm for Fia-block=  3.975D-03 for orbital     24a    alpha
          max. resid. fock norm         =  3.975D-03 for orbital     24a    alpha
          Delta Eig. =     0.0481697599 eV 
 
                                              current damping :  0.300
 ITERATION  ENERGY          1e-ENERGY        2e-ENERGY     RMS[dD(SAO)]   TOL
   7  -379.39093871008    -1154.5249966     453.03298492    0.102D-04 0.158D-13
          Norm of current diis error: 0.12823E-01
          max. resid. norm for Fia-block=  3.228D-03 for orbital     24a    alpha
          max. resid. fock norm         =  3.228D-03 for orbital     24a    alpha
          Delta Eig. =     0.0210473244 eV 
 
                                              current damping :  0.350
 ITERATION  ENERGY          1e-ENERGY        2e-ENERGY     RMS[dD(SAO)]   TOL
   8  -379.39097918487    -1154.5242776     453.03222549    0.352D-05 0.149D-13
          Norm of current diis error: 0.11424E-01
          max. resid. norm for Fia-block=  2.857D-03 for orbital     24a    alpha
          max. resid. fock norm         =  2.857D-03 for orbital     24a    alpha
          Delta Eig. =     0.0167492396 eV 
 
                                              current damping :  0.200
 ITERATION  ENERGY          1e-ENERGY        2e-ENERGY     RMS[dD(SAO)]   TOL
   9  -379.39101363175    -1154.5238254     453.03173884    0.190D-05 0.138D-13
          Norm of current diis error: 0.10699E-01
          max. resid. norm for Fia-block=  2.955D-03 for orbital     24a    alpha
          max. resid. fock norm         =  2.955D-03 for orbital     24a    alpha
          Delta Eig. =     0.0207370027 eV 
 
                                              current damping :  0.100
 ITERATION  ENERGY          1e-ENERGY        2e-ENERGY     RMS[dD(SAO)]   TOL
  10  -379.39105106589    -1154.5231250     453.03100098    0.151D-05 0.123D-13
          Norm of current diis error: 0.10050E-01
          max. resid. norm for Fia-block=  3.926D-03 for orbital     24a    alpha
          max. resid. fock norm         =  3.926D-03 for orbital     24a    alpha
 mo-orthogonalization: Cholesky decomposition
          Delta Eig. =     0.0312513544 eV 
 
                                              current damping :  0.100
 ITERATION  ENERGY          1e-ENERGY        2e-ENERGY     RMS[dD(SAO)]   TOL
  11  -379.39110322524    -1154.5225364     453.03036021    0.193D-05 0.106D-13
          Norm of current diis error: 0.92228E-02
          max. resid. norm for Fia-block=  6.226D-03 for orbital     24a    alpha
          max. resid. fock norm         =  6.226D-03 for orbital     24a    alpha
          Delta Eig. =     0.0495718690 eV 
 
                                              current damping :  0.100
 ITERATION  ENERGY          1e-ENERGY        2e-ENERGY     RMS[dD(SAO)]   TOL
  12  -379.39117522337    -1154.5214408     453.02919265    0.296D-05 0.888D-14
          Norm of current diis error: 0.79532E-02
          max. resid. norm for Fia-block=  1.068D-02 for orbital     24a    beta 
          max. resid. fock norm         =  1.068D-02 for orbital     24a    beta 
          Delta Eig. =     0.0860710900 eV 
 
                                              current damping :  0.100
 ITERATION  ENERGY          1e-ENERGY        2e-ENERGY     RMS[dD(SAO)]   TOL
  13  -379.39127163552    -1154.5202308     453.02788624    0.407D-05 0.741D-14
          Norm of current diis error: 0.59535E-02
          max. resid. norm for Fia-block=  1.297D-02 for orbital     24a    beta 
          max. resid. fock norm         =  1.297D-02 for orbital     24a    beta 
          Delta Eig. =     0.1054558187 eV 
 
                                              current damping :  0.100
 ITERATION  ENERGY          1e-ENERGY        2e-ENERGY     RMS[dD(SAO)]   TOL
  14  -379.39134607893    -1154.5194315     453.02701249    0.440D-05 0.649D-14
          Norm of current diis error: 0.40209E-02
          max. resid. norm for Fia-block=  6.720D-03 for orbital     24a    beta 
          max. resid. fock norm         =  6.720D-03 for orbital     24a    beta 
          Delta Eig. =     0.0492319187 eV 
 
                                              current damping :  0.100
 ITERATION  ENERGY          1e-ENERGY        2e-ENERGY     RMS[dD(SAO)]   TOL
  15  -379.39136634819    -1154.5185521     453.02611283    0.138D-05 0.616D-14
          Norm of current diis error: 0.22948E-02
          max. resid. norm for Fia-block=  5.759D-03 for orbital     24a    beta 
          max. resid. fock norm         =  5.759D-03 for orbital     24a    beta 
 mo-orthogonalization: Cholesky decomposition
          Delta Eig. =     0.0456587861 eV 
 
                                              current damping :  0.100
 ITERATION  ENERGY          1e-ENERGY        2e-ENERGY     RMS[dD(SAO)]   TOL
  16  -379.39137446607    -1154.5183926     453.02594512    0.127D-05 0.592D-14
          Norm of current diis error: 0.14531E-02
          max. resid. norm for Fia-block=  1.858D-03 for orbital     24a    beta 
          max. resid. fock norm         =  1.858D-03 for orbital     24a    beta 
          Delta Eig. =     0.0150301066 eV 
 
                                              current damping :  0.100
 ITERATION  ENERGY          1e-ENERGY        2e-ENERGY     RMS[dD(SAO)]   TOL
  17  -379.39137526082    -1154.5179158     453.02546759    0.488D-06 0.588D-14
          Norm of current diis error: 0.58153E-03
          max. resid. norm for Fia-block=  7.204D-04 for orbital     24a    alpha
          max. resid. fock norm         =  7.204D-04 for orbital     24a    alpha
          Delta Eig. =     0.0057331110 eV 
 
                                              current damping :  0.150
 ITERATION  ENERGY          1e-ENERGY        2e-ENERGY     RMS[dD(SAO)]   TOL
  18  -379.39137531235    -1154.5179332     453.02548490    0.273D-06 0.591D-14
          Norm of current diis error: 0.29101E-03
          max. resid. norm for Fia-block=  5.532D-05 for orbital     25a    alpha
          max. resid. fock norm         =  5.959D-05 for orbital     25a    alpha
          Delta Eig. =     0.0007446031 eV 
 
                                              current damping :  0.200
 ITERATION  ENERGY          1e-ENERGY        2e-ENERGY     RMS[dD(SAO)]   TOL
  19  -379.39137532439    -1154.5179097     453.02546146    0.223D-06 0.633D-14
          Norm of current diis error: 0.13359E-03
          max. resid. norm for Fia-block=  1.429D-04 for orbital     24a    beta 
          max. resid. fock norm         =  1.429D-04 for orbital     24a    beta 
          Delta Eig. =     0.0009944701 eV 
 
                                              current damping :  0.250
 ITERATION  ENERGY          1e-ENERGY        2e-ENERGY     RMS[dD(SAO)]   TOL
  20  -379.39137533756    -1154.5179232     453.02547489    0.106D-06 0.749D-14
          Norm of current diis error: 0.69250E-04
          max. resid. norm for Fia-block=  8.693D-05 for orbital     24a    beta 
          max. resid. fock norm         =  8.693D-05 for orbital     24a    beta 
 mo-orthogonalization: Cholesky decomposition
          Delta Eig. =     0.0005877667 eV 

 DENSITY CONVERGED !

 
                                              current damping :  0.100
 ITERATION  ENERGY          1e-ENERGY        2e-ENERGY     RMS[dD(SAO)]   TOL
  21  -379.39137534272    -1154.5179306     453.02548227    0.464D-07 0.133D-13
          Norm of current diis error: 0.43791E-04
          max. resid. norm for Fia-block=  6.863D-05 for orbital     24a    beta 
          max. resid. fock norm         =  6.863D-05 for orbital     24a    beta 
          Delta Eig. =     0.0005250270 eV 

 ENERGY & DENSITY CONVERGED !

 
                                              current damping :  0.100
 ITERATION  ENERGY          1e-ENERGY        2e-ENERGY     RMS[dD(SAO)]   TOL
  22  -379.39137534593    -1154.5179315     453.02548320    0.119D-07 0.466D-13
          max. resid. norm for Fia-block=  5.443D-06 for orbital     24a    alpha
          max. resid. fock norm         =  5.443D-06 for orbital     24a    alpha

 convergence criteria satisfied after    22 iterations


                  ------------------------------------------ 
                 |  total energy      =   -379.39137534593  |
                  ------------------------------------------ 
                 :  kinetic energy    =    378.75632567454  :
                 :  potential energy  =   -758.14770102046  :
                 :  virial theorem    =      1.99832613572  :
                 :  wavefunction norm =      1.00000000000  :
                  .......................................... 


 orbitals $uhfmo_beta  will be written to file beta

 orbitals $uhfmo_alpha  will be written to file alpha
 
 alpha: 

    irrep                 24a         25a         26a         27a         28a   
 eigenvalues H         -0.55203    -0.46729    -0.44692    -0.41613    -0.41246
            eV         -15.0217    -12.7158    -12.1614    -11.3234    -11.2237
 occupation              1.0000      1.0000      1.0000      1.0000      1.0000 

    irrep                 29a         30a         31a         32a         33a   
 eigenvalues H         -0.00258     0.10343     0.10547     0.11111     0.13972
            eV          -0.0701      2.8146      2.8700      3.0236      3.8019
 
 beta:  

    irrep                 24a         25a         26a         27a         28a   
 eigenvalues H         -0.55209    -0.46731    -0.44693    -0.41620    -0.41245
            eV         -15.0232    -12.7162    -12.1616    -11.3255    -11.2234
 occupation              1.0000      1.0000      1.0000      1.0000      1.0000 

    irrep                 29a         30a         31a         32a         33a   
 eigenvalues H         -0.00261     0.10344     0.10547     0.11111     0.13972
            eV          -0.0709      2.8149      2.8700      3.0236      3.8019
 

                                             _ _ _ 
  IRREP     alpha occ.     beta occ.      tr(D*D-D)


 a         28.00000000    28.00000000    -0.00000012

   -------------------------------------------------

   sum     28.00000000    28.00000000    -0.00000012

 <S*S>     0.00000024

 
 
 
 ==============================================================================
                           electrostatic moments
 ==============================================================================

 reference point for electrostatic moments:    0.00000   0.00000   0.00000

 
              nuc           elec       ->  total
 ------------------------------------------------------------------------------
                          charge      
 ------------------------------------------------------------------------------
          56.000000     -56.000000       0.000000
 a-b                                    -0.000000
 
 ------------------------------------------------------------------------------
                       dipole moment  
 ------------------------------------------------------------------------------
   x       0.000000       0.000000       0.000000
   y       0.000000      -0.000000      -0.000000
   z       0.000000       0.000000       0.000000
 
   | dipole moment | =     0.0000 a.u. =     0.0000 debye 
 
 ------------------------------------------------------------------------------
                     quadrupole moment
 ------------------------------------------------------------------------------
  xx     205.336253    -232.908850     -27.572597
  yy     557.957609    -606.605733     -48.648124
  zz       0.000000     -34.479803     -34.479803
  xy       0.000000      -0.000000      -0.000000
  xz       0.000000      -0.000000      -0.000000
  yz       0.000000      -0.000000      -0.000000
 
     1/3  trace=     -36.900174
     anisotropy=      18.609522
 
 ==============================================================================
 


    ------------------------------------------------------------------------
         total  cpu-time :  2 hours 19 minutes and 33 seconds
         total wall-time :  9 minutes and 49 seconds
    ------------------------------------------------------------------------

   ****  dscf : all done  ****


    2019-03-02 21:46:46.398 

