           Doing BLAS/Lapack in the master proc. with  8 CPUs.
           SMPCPUS    set: Shared-memory Parallelization with   8 CPUs.

           SMP Parallelization Reference:
           C. van Wullen, J. Comput. Chem. 32 (2011) 1195--1201
 operating system is UNIX !

 ridft (c-18-213.gp.local) : TURBOMOLE V7.2 ( 21454 ) 4 Oct 2017 at 12:48:15
 Copyright (C) 2017 TURBOMOLE GmbH, Karlsruhe


    2018-04-28 21:06:40.333 



                                  r i d f t

                        DFT program with RI approximation 
                                for coulomb part 




                                                 
                                 References:     
                                                 
          TURBOMOLE:                             
              R. Ahlrichs, M. Baer, M. Haeser, H. Horn, and
              C. Koelmel
              Electronic structure calculations on workstation
              computers: the program system TURBOMOLE
              Chem. Phys. Lett. 162: 165 (1989)
          Density Functional:                              
              O. Treutler and R. Ahlrichs                      
              Efficient Molecular Numerical Integration Schemes
              J. Chem. Phys. 102: 346 (1995)                   
          Parallel Version:                                
              Performance of parallel TURBOMOLE for Density    
              Functional Calculations                          
              M. v. Arnim and R. Ahlrichs                      
              J. Comp. Chem. 19: 1746 (1998)                   
          RI-J Method:                                     
              Auxiliary Basis Sets to approximate Coulomb      
              Potentials                                       
              Chem. Phys. Lett. 240: 283 (1995)                
              K. Eichkorn, O. Treutler, H. Oehm, M. Haeser     
              and R. Ahlrichs                                  
              Chem. Phys. Lett. 242: 652 (1995)                
                                                           
              Auxiliary Basis Sets for Main Row Atoms and their
              Use to approximate Coulomb Potentials            
              K. Eichkorn, F. Weigend, O. Treutler and         
              R. Ahlrichs                                      
              Theo. Chem. Acc. 97: 119 (1997)                   
                                                           
              Accurate Coulomb-fitting basis sets for H to Rn 
              F. Weigend                                        
              Phys. Chem. Chem. Phys. 8: 1057 (2006)            
                                                           
          Multipole accelerated RI-J (MARI-J):             
              Fast evaluation of the Coulomb potential for     
              electron densities using multipole accelerated   
              resolution of identity approximation             
              M. Sierka, A. Hogekamp and R. Ahlrichs           
              J. Chem. Phys. 118: 9136 (2003)                  
          RI-JK Method:                                     
              A fully direct RI-HF algorithm: Implementation,
              optimised auxiliary basis sets, demonstration of
              accuracy and efficiency                         
              F. Weigend                                      
              Phys. Chem. Chem. Phys. 4: 4285 (2002)           
          Two-component HF and DFT with spin-orbit coupling:  
              Self-consistent treatment of spin-orbit         
              interactions with efficient Hartree-Fock and    
              density functional methods                      
              M. K. Armbruster, F. Weigend, C. van Wüllen and 
              W. Klopper                                      
              Phys. Chem. Chem. Phys. 10: 1748 (2008)         
          Relativistic all-electron 2c calculations           
              An efficient implementation of two-component    
              relativistic exact-decoupling methods for large 
              molecules                                       
              D. Peng, N. Middendorf, F. Weigend, M. Reiher   
              J. Chem. Phys. 138, 184105 (2013)               
                                         




              +--------------------------------------------------+
              |      general information about current run       |
              +--------------------------------------------------+

 

 DENSITY CONVERGENCE CHECK SWITCHED ON !
 SCF CONVERGENCE IF RMS(delta[D]) <     0.1000000000E-06

 TPSS meta-GGA functional
 exchange:    LDA + TPSS
 correlation: LDA (PW) + TPSS
 A DFT calculation using the RI-J approximation will be carried out.
 Allocatable memory for RI due to $ricore (MB):                  5000


              +--------------------------------------------------+
              | Atomic coordinate, charge and isotop information |
              +--------------------------------------------------+

                    atomic coordinates            atom    charge  isotop
          0.01106371    0.14201325    7.14212836    c      6.000     0
          0.00537727    0.10883807    5.13131707    h      1.000     0
          0.01798095    0.17901570    9.43318730    c      6.000     0
          0.02386255    0.21146783   11.43855902    h      1.000     0
 
       center of nuclear mass  :    0.01452988    0.16048648    8.28744725
       center of nuclear charge:    0.01453627    0.16046283    8.28726929

              +--------------------------------------------------+
              |               basis set information              |
              +--------------------------------------------------+

              we will work with the 1s 3p 5d 7f 9g ... basis set
              ...i.e. with spherical basis functions...

   type   atoms  prim   cont   basis
   ---------------------------------------------------------------------------
    c        2     50     30   cc-pVTZ   [4s3p2d1f|18s5p2d1f]
    h        2     16     14   cc-pVTZ   [3s2p1d|5s2p1d]
   ---------------------------------------------------------------------------
   total:    4    132     88
   ---------------------------------------------------------------------------

   total number of primitive shells          :   34
   total number of contracted shells         :   32
   total number of cartesian basis functions :  100
   total number of SCF-basis functions       :   88


 integral neglect threshold       :  0.33E-12
 integral storage threshold THIZE :  0.10E-04
 integral storage threshold THIME :         5

 RI-J AUXILIARY BASIS SET information:

              we will work with the 1s 3p 5d 7f 9g ... basis set
              ...i.e. with spherical basis functions...

   type   atoms  prim   cont   basis
   ---------------------------------------------------------------------------
    c        2     70     49   cc-pVTZ   [6s4p3d1f1g|12s5p4d2f1g]
    h        2     16     11   cc-pVTZ   [3s1p1d|5s2p1d]
   ---------------------------------------------------------------------------
   total:    4    172    120
   ---------------------------------------------------------------------------

   total number of primitive shells          :   32
   total number of contracted shells         :   40
   total number of cartesian basis functions :  146
   total number of SCF-basis functions       :  120


 symmetry group of the molecule :   c1 

 the group has the following generators :
   c1(z)

    1 symmetry operations found

 there are 1 real representations :   a   

 maximum number of shells which are related by symmetry :  1


    mo occupation :
   irrep   mo's   occupied
    a       88        7
 
 number of basis functions   :                     88
 number of occupied orbitals :                      7
 
  
           ------------------
           density functional
           ------------------
 TPSS meta-GGA functional
 exchange:    LDA + TPSS
 correlation: LDA (PW) + TPSS

 iterations will be done with small grid
  
 spherical integration : Lebedev's spherical grid
 spherical gridsize    :                     5
    i.e. gridpoints    :                   590
 value for diffuse not defined
 radial integration    : Chebyshev 2nd kind (scaling 3)
 radial gridsize       :                     8
 integration cells     :                     4
 partition function    : becke
 partition sharpness   :                     3
  

 biggest AO integral is expected to be     3.593180334
  
           ------------------------
               RI-J - INFORMATION
           ------------------------
 Contributions to RI integral batches: 
  neglected integral batches:                     4
  direct contribution:                            0
  memory contribution:                   524
 Memory core needed for (P|Q) and Cholesky      1 MByte
 Memory core minimum needed except of (P|Q)     1 MByte
 Total minimum memory core needed (sum)         1 MByte
  
 ****************************************
 Memory allocated for RI-J     6 MByte
 ****************************************
                                            

          ------------------------
          nuclear repulsion energy  :   24.6355454446    
          ------------------------


         -----------------
         -S,T+V- integrals
         -----------------

 1e-integrals will be neglected if expon. factor < 0.334196E-13
 Difference densities >>NOT<< switched on in parallel ridft!

 DIIS switched on: error vector is FDS-SDF
 Max. Iterations for DIIS is     :   4
 DIIS matrix (see manual) 
    Scaling factor of diagonals  :  1.200
    threshold for scaling factor :  0.000

 scf convergence criterion : increment of total energy < .1000000D-08
                  and increment of one-electron energy < .1000000D-05

  MOs are in ASCII format !


 automatic virtual orbital shift switched on 
      shift if e(lumo)-e(homo) < 0.10000000    


 reading orbital data $scfmo  from file mos
 orbital characterization : expanded
 mo provided and orthogonalized by Cholesky decomposition

 DSCF restart information will be dumped onto file mos


 Starting SCF iterations

          Overall gridpoints after grid construction =         19973

 ITERATION  ENERGY          1e-ENERGY        2e-ENERGY     RMS[dD(SAO)]   TOL
   1  -77.058734174548    -148.45252265     46.758243027    0.000D+00 0.333D-12
                            Exc = -11.1007053628     Coul =  57.8589483895    
                              N = 14.000000006    
                            current damping = 0.700
 
          max. resid. norm for Fia-block=  2.956D-01 for orbital      2a         
          max. resid. fock norm         =  5.549D+00 for orbital     85a         

 ITERATION  ENERGY          1e-ENERGY        2e-ENERGY     RMS[dD(SAO)]   TOL
   2  -77.303925360223    -150.61479583     48.675325030    0.573D-02 0.333D-12
                            Exc = -11.3534250330     Coul =  60.0287500629    
                              N = 13.999999716    
                            current damping = 0.650
 
          Norm of current diis error:  1.1816    
          max. resid. norm for Fia-block=  1.378D-01 for orbital      2a         
          max. resid. fock norm         =  1.617D-01 for orbital     25a         

 ITERATION  ENERGY          1e-ENERGY        2e-ENERGY     RMS[dD(SAO)]   TOL
   3  -77.354572534505    -151.17840307     49.188285088    0.264D-02 0.333D-12
                            Exc = -11.4344675308     Coul =  60.6227526187    
                              N = 13.999999587    
                            current damping = 0.550
 
          Norm of current diis error: 0.55400    
          max. resid. norm for Fia-block=  5.620D-02 for orbital      2a         
          max. resid. fock norm         =  5.872D-02 for orbital     11a         

 ITERATION  ENERGY          1e-ENERGY        2e-ENERGY     RMS[dD(SAO)]   TOL
   4  -77.369219344498    -151.52737249     49.522607705    0.156D-02 0.333D-12
                            Exc = -11.4851169186     Coul =  61.0077246233    
                              N = 13.999999648    
                            current damping = 0.400
 
          Norm of current diis error: 0.21150    
          max. resid. norm for Fia-block=  2.057D-02 for orbital      2a         
          max. resid. fock norm         =  2.263D-02 for orbital      3a         

 ITERATION  ENERGY          1e-ENERGY        2e-ENERGY     RMS[dD(SAO)]   TOL
   5  -77.371869547372    -151.66241865     49.655003655    0.981D-03 0.333D-12
                            Exc = -11.5058674501     Coul =  61.1608711051    
                              N = 13.999999722    
                            current damping = 0.250
 
          Norm of current diis error: 0.63374E-01
          max. resid. norm for Fia-block=  6.226D-03 for orbital      3a         
          max. resid. fock norm         =  6.849D-03 for orbital      3a         
          mo-orthogonalization: Cholesky decomposition

 ITERATION  ENERGY          1e-ENERGY        2e-ENERGY     RMS[dD(SAO)]   TOL
   6  -77.372140089373    -151.71048119     49.702795651    0.459D-03 0.333D-12
                            Exc = -11.5131071958     Coul =  61.2159028471    
                              N = 13.999999756    
                            current damping = 0.100
 
          Norm of current diis error: 0.13217E-01
          max. resid. norm for Fia-block=  1.304D-03 for orbital      3a         
          max. resid. fock norm         =  1.739D-03 for orbital      2a         

 ITERATION  ENERGY          1e-ENERGY        2e-ENERGY     RMS[dD(SAO)]   TOL
   7  -77.372143284066    -151.71535908     49.707670354    0.138D-03 0.333D-12
                            Exc = -11.5141005317     Coul =  61.2217708861    
                              N = 13.999999765    
                            current damping = 0.050
 
          Norm of current diis error: 0.14769E-01
          max. resid. norm for Fia-block=  5.562D-04 for orbital      6a         
          max. resid. fock norm         =  8.485D-04 for orbital      2a         

 ITERATION  ENERGY          1e-ENERGY        2e-ENERGY     RMS[dD(SAO)]   TOL
   8  -77.372151291265    -151.71779727     49.710100536    0.449D-04 0.333D-12
                            Exc = -11.5144109046     Coul =  61.2245114407    
                              N = 13.999999766    
                            current damping = 0.050
 
          Norm of current diis error: 0.54096E-02
          max. resid. norm for Fia-block=  1.969D-04 for orbital      6a         
          max. resid. fock norm         =  3.995D-04 for orbital      2a         

 ITERATION  ENERGY          1e-ENERGY        2e-ENERGY     RMS[dD(SAO)]   TOL
   9  -77.372152409850    -151.71946416     49.711766308    0.151D-04 0.333D-12
                            Exc = -11.5145830020     Coul =  61.2263493105    
                              N = 13.999999766    
                            current damping = 0.050
 
          Norm of current diis error: 0.16307E-02
          max. resid. norm for Fia-block=  6.869D-05 for orbital      6a         
          max. resid. fock norm         =  9.838D-05 for orbital      1a         

 ITERATION  ENERGY          1e-ENERGY        2e-ENERGY     RMS[dD(SAO)]   TOL
  10  -77.372152513685    -151.71780570     49.710107743    0.457D-05 0.333D-12
                            Exc = -11.5144029975     Coul =  61.2245107406    
                              N = 13.999999766    
                            current damping = 0.100
 
          Norm of current diis error: 0.46402E-03
          max. resid. norm for Fia-block=  3.027D-05 for orbital      5a         
          max. resid. fock norm         =  4.140D-05 for orbital     73a         
          mo-orthogonalization: Cholesky decomposition

 ITERATION  ENERGY          1e-ENERGY        2e-ENERGY     RMS[dD(SAO)]   TOL
  11  -77.372152522842    -151.71862556     49.710927596    0.143D-05 0.333D-12
                            Exc = -11.5144932294     Coul =  61.2254208251    
                              N = 13.999999766    
                            current damping = 0.150
 
          Norm of current diis error: 0.12421E-03
          max. resid. norm for Fia-block=  6.810D-06 for orbital      5a         
          max. resid. fock norm         =  9.579D-06 for orbital     73a         

 ITERATION  ENERGY          1e-ENERGY        2e-ENERGY     RMS[dD(SAO)]   TOL
  12  -77.372152523525    -151.71844595     49.710747985    0.358D-06 0.333D-12
                            Exc = -11.5144729921     Coul =  61.2252209775    
                              N = 13.999999766    
                            current damping = 0.200
 
          Norm of current diis error: 0.26670E-04
          max. resid. norm for Fia-block=  9.948D-07 for orbital      6a         
          max. resid. fock norm         =  2.021D-06 for orbital      2a         

 DENSITY CONVERGED !


 ITERATION  ENERGY          1e-ENERGY        2e-ENERGY     RMS[dD(SAO)]   TOL
  13  -77.372152523555    -151.71845435     49.710756386    0.650D-07 0.333D-12
                            Exc = -11.5144739957     Coul =  61.2252303812    
                              N = 13.999999766    
                            current damping = 0.250
 
          Norm of current diis error: 0.39283E-05
          max. resid. norm for Fia-block=  1.420D-07 for orbital      6a         
          max. resid. fock norm         =  3.004D-07 for orbital      1a         

 ENERGY & DENSITY CONVERGED !

          Overall gridpoints after grid construction =         64950

 ITERATION  ENERGY          1e-ENERGY        2e-ENERGY     RMS[dD(SAO)]   TOL
  14  -77.372110895129    -151.71845476     49.710798421    0.905D-08 0.333D-12
                            Exc = -11.5144324243     Coul =  61.2252308448    
                              N = 14.000000051    
                            current damping = 0.100
 
          Norm of current diis error: 0.35668E-06
          max. resid. norm for Fia-block=  1.070D-08 for orbital      7a         
          max. resid. fock norm         =  1.871D-08 for orbital      1a         

 End of SCF iterations

   convergence criteria satisfied after    14 iterations


                  ------------------------------------------ 
                 |  total energy      =    -77.37211089513  |
                  ------------------------------------------ 
                 :  kinetic energy    =     76.87929626906  :
                 :  potential energy  =   -154.25140716419  :
                 :  virial theorem    =      1.99363059091  :
                 :  wavefunction norm =      1.00000000000  :
                  .......................................... 


 <geterg> : there is no data group $energy 


 <skperg> : $end is missing 


 orbitals $scfmo  will be written to file mos

    irrep                  3a          4a          5a          6a          7a   
 eigenvalues H         -0.69591    -0.52943    -0.45496    -0.26091    -0.26091
            eV         -18.9367    -14.4067    -12.3803     -7.0997     -7.0997
 occupation              2.0000      2.0000      2.0000      2.0000      2.0000 

    irrep                  8a          9a         10a         11a         12a   
 eigenvalues H          0.00092     0.00092     0.04754     0.07193     0.17146
            eV           0.0250      0.0250      1.2936      1.9574      4.6656
 
 
 
 
 ==============================================================================
                           electrostatic moments
 ==============================================================================

 reference point for electrostatic moments:    0.00000   0.00000   0.00000

 
              nuc           elec       ->  total
 ------------------------------------------------------------------------------
                          charge      
 ------------------------------------------------------------------------------
          14.000000     -14.000000      -0.000000
 
 ------------------------------------------------------------------------------
                       dipole moment  
 ------------------------------------------------------------------------------
   x       0.203508      -0.203466       0.000042
   y       2.246480      -2.246633      -0.000153
   z     116.021770    -116.022849      -0.001079
 
   | dipole moment | =     0.0011 a.u. =     0.0028 debye 
 
 ------------------------------------------------------------------------------
                     quadrupole moment
 ------------------------------------------------------------------------------
  xx       0.003273     -10.060401     -10.057129
  yy       0.369851     -10.425779     -10.055928
  zz     997.141167   -1002.337215      -5.196048
  xy       0.034372      -0.034135       0.000237
  xz       1.792362      -1.777753       0.014609
  yz      19.195163     -19.117181       0.077981
 
     1/3  trace=      -8.436368
     anisotropy=       4.862423
 
 ==============================================================================
 


    ------------------------------------------------------------------------
         total  cpu-time :  17.87 seconds
         total wall-time :   1.50 seconds
    ------------------------------------------------------------------------

   ****  ridft : all done  ****


    2018-04-28 21:06:41.827 

