           Doing BLAS/Lapack in the master proc. with  8 CPUs.
           SMPCPUS    set: Shared-memory Parallelization with   8 CPUs.

           SMP Parallelization Reference:
           C. van Wullen, J. Comput. Chem. 32 (2011) 1195--1201
 operating system is UNIX !

 ridft (c-18-81.gp.local) : TURBOMOLE V7.2 ( 21454 ) 4 Oct 2017 at 12:48:15
 Copyright (C) 2017 TURBOMOLE GmbH, Karlsruhe


    2018-04-24 21:19:13.767 



                                  r i d f t

                        DFT program with RI approximation 
                                for coulomb part 




                                                 
                                 References:     
                                                 
          TURBOMOLE:                             
              R. Ahlrichs, M. Baer, M. Haeser, H. Horn, and
              C. Koelmel
              Electronic structure calculations on workstation
              computers: the program system TURBOMOLE
              Chem. Phys. Lett. 162: 165 (1989)
          Density Functional:                              
              O. Treutler and R. Ahlrichs                      
              Efficient Molecular Numerical Integration Schemes
              J. Chem. Phys. 102: 346 (1995)                   
          Parallel Version:                                
              Performance of parallel TURBOMOLE for Density    
              Functional Calculations                          
              M. v. Arnim and R. Ahlrichs                      
              J. Comp. Chem. 19: 1746 (1998)                   
          RI-J Method:                                     
              Auxiliary Basis Sets to approximate Coulomb      
              Potentials                                       
              Chem. Phys. Lett. 240: 283 (1995)                
              K. Eichkorn, O. Treutler, H. Oehm, M. Haeser     
              and R. Ahlrichs                                  
              Chem. Phys. Lett. 242: 652 (1995)                
                                                           
              Auxiliary Basis Sets for Main Row Atoms and their
              Use to approximate Coulomb Potentials            
              K. Eichkorn, F. Weigend, O. Treutler and         
              R. Ahlrichs                                      
              Theo. Chem. Acc. 97: 119 (1997)                   
                                                           
              Accurate Coulomb-fitting basis sets for H to Rn 
              F. Weigend                                        
              Phys. Chem. Chem. Phys. 8: 1057 (2006)            
                                                           
          Multipole accelerated RI-J (MARI-J):             
              Fast evaluation of the Coulomb potential for     
              electron densities using multipole accelerated   
              resolution of identity approximation             
              M. Sierka, A. Hogekamp and R. Ahlrichs           
              J. Chem. Phys. 118: 9136 (2003)                  
          RI-JK Method:                                     
              A fully direct RI-HF algorithm: Implementation,
              optimised auxiliary basis sets, demonstration of
              accuracy and efficiency                         
              F. Weigend                                      
              Phys. Chem. Chem. Phys. 4: 4285 (2002)           
          Two-component HF and DFT with spin-orbit coupling:  
              Self-consistent treatment of spin-orbit         
              interactions with efficient Hartree-Fock and    
              density functional methods                      
              M. K. Armbruster, F. Weigend, C. van Wüllen and 
              W. Klopper                                      
              Phys. Chem. Chem. Phys. 10: 1748 (2008)         
          Relativistic all-electron 2c calculations           
              An efficient implementation of two-component    
              relativistic exact-decoupling methods for large 
              molecules                                       
              D. Peng, N. Middendorf, F. Weigend, M. Reiher   
              J. Chem. Phys. 138, 184105 (2013)               
                                         




              +--------------------------------------------------+
              |      general information about current run       |
              +--------------------------------------------------+

 

 DENSITY CONVERGENCE CHECK SWITCHED ON !
 SCF CONVERGENCE IF RMS(delta[D]) <     0.1000000000E-06

 TPSS meta-GGA functional
 exchange:    LDA + TPSS
 correlation: LDA (PW) + TPSS
 A DFT calculation using the RI-J approximation will be carried out.
 Allocatable memory for RI due to $ricore (MB):                   500


              +--------------------------------------------------+
              | Atomic coordinate, charge and isotop information |
              +--------------------------------------------------+

                    atomic coordinates            atom    charge  isotop
         -1.14553187    0.10558668    1.11305796    c      6.000     0
         -3.15213248    0.10540182    1.11307065    h      1.000     0
          1.14488817    0.10495703    1.11355182    c      6.000     0
          3.15145502    0.10367658    1.11442430    h      1.000     0
         -4.78177039   -0.65659669    7.97183645    c      6.000     0
         -4.79758103   -1.90750758    6.33455772    h      1.000     0
         -4.87988181   -1.84007399    9.65480911    h      1.000     0
         -6.48708688    0.49406522    7.90992595    h      1.000     0
         -2.39970989    0.95836462    7.99275434    c      6.000     0
         -2.43117698    2.23014884    9.61869194    h      1.000     0
         -2.35196220    2.15685919    6.31317310    h      1.000     0
          0.00008851   -0.62585138    8.06920384    c      6.000     0
          0.00009368   -1.79330462    9.77574256    h      1.000     0
          0.00021530   -1.92654828    6.46437057    h      1.000     0
          2.39984900    0.95844979    7.99291851    c      6.000     0
          2.43127104    2.23017333    9.61887913    h      1.000     0
          2.35233200    2.15686179    6.31332767    h      1.000     0
          4.78189130   -0.65657929    7.97223278    c      6.000     0
          4.79772676   -1.90754540    6.33501360    h      1.000     0
          6.48714004    0.49413418    7.91038892    h      1.000     0
          4.87981167   -1.83995364    9.65528627    h      1.000     0
 
       center of nuclear mass  :   -0.00003380    0.01027140    6.17266054
       center of nuclear charge:   -0.00002762   -0.00202907    6.27651778

              +--------------------------------------------------+
              |               basis set information              |
              +--------------------------------------------------+

              we will work with the 1s 3p 5d 7f 9g ... basis set
              ...i.e. with spherical basis functions...

   type   atoms  prim   cont   basis
   ---------------------------------------------------------------------------
    c        7     77     55   cc-pVQZ   [5s4p3d2f1g|21s6p3d2f1g]
    h       14     32     30   cc-pVQZ   [4s3p2d1f|6s3p2d1f]
   ---------------------------------------------------------------------------
   total:   21    987    805
   ---------------------------------------------------------------------------

   total number of primitive shells          :   45
   total number of contracted shells         :  245
   total number of cartesian basis functions :  980
   total number of SCF-basis functions       :  805


 integral neglect threshold       :  0.34E-13
 integral storage threshold THIZE :  0.10E-04
 integral storage threshold THIME :         5

 RI-J AUXILIARY BASIS SET information:

              we will work with the 1s 3p 5d 7f 9g ... basis set
              ...i.e. with spherical basis functions...

   type   atoms  prim   cont   basis
   ---------------------------------------------------------------------------
    c        7     70     49   cc-pVQZ   [6s4p3d1f1g|12s5p4d2f1g]
    h       14     16     11   cc-pVQZ   [3s1p1d|5s2p1d]
   ---------------------------------------------------------------------------
   total:   21    714    497
   ---------------------------------------------------------------------------

   total number of primitive shells          :   32
   total number of contracted shells         :  175
   total number of cartesian basis functions :  595
   total number of SCF-basis functions       :  497


 symmetry group of the molecule :   c1 

 the group has the following generators :
   c1(z)

    1 symmetry operations found

 there are 1 real representations :   a   

 maximum number of shells which are related by symmetry :  1


    mo occupation :
   irrep   mo's   occupied
    a      805       28
 
 number of basis functions   :                    805
 number of occupied orbitals :                     28
 
  
           ------------------
           density functional
           ------------------
 TPSS meta-GGA functional
 exchange:    LDA + TPSS
 correlation: LDA (PW) + TPSS

 iterations will be done with small grid
  
 spherical integration : Lebedev's spherical grid
 spherical gridsize    :                     5
    i.e. gridpoints    :                   590
 value for diffuse not defined
 radial integration    : Chebyshev 2nd kind (scaling 3)
 radial gridsize       :                     8
 integration cells     :                    21
 partition function    : becke
 partition sharpness   :                     3
  

 biggest AO integral is expected to be     3.537514283
  
           ------------------------
               RI-J - INFORMATION
           ------------------------
 Contributions to RI integral batches: 
  neglected integral batches:                  6561
  direct contribution:                        14754
  memory contribution:                  8820
 Memory core needed for (P|Q) and Cholesky      2 MByte
 Memory core minimum needed except of (P|Q)     1 MByte
 Total minimum memory core needed (sum)         3 MByte
  
 ****************************************
 Memory allocated for RI-J   306 MByte
 ****************************************
                                            

          ------------------------
          nuclear repulsion energy  :   285.696973710    
          ------------------------


         -----------------
         -S,T+V- integrals
         -----------------

 1e-integrals will be neglected if expon. factor < 0.341016E-14
 Difference densities >>NOT<< switched on in parallel ridft!

 DIIS switched on: error vector is FDS-SDF
 Max. Iterations for DIIS is     :   4
 DIIS matrix (see manual) 
    Scaling factor of diagonals  :  1.200
    threshold for scaling factor :  0.000

 scf convergence criterion : increment of total energy < .1000000D-08
                  and increment of one-electron energy < .1000000D-05

  MOs are in ASCII format !


 automatic virtual orbital shift switched on 
      shift if e(lumo)-e(homo) < 0.10000000    


 reading orbital data $scfmo  from file mos
 orbital characterization : expanded
 mo provided and orthogonalized by Cholesky decomposition

 DSCF restart information will be dumped onto file mos


 Starting SCF iterations

          Overall gridpoints after grid construction =         92101

 ITERATION  ENERGY          1e-ENERGY        2e-ENERGY     RMS[dD(SAO)]   TOL
   1  -274.24250095607    -922.71142980     362.77195513    0.000D+00 0.340D-13
                            Exc = -41.7065333639     Coul =  404.478488496    
                              N = 56.000385458    
                            current damping = 0.700
 
          max. resid. norm for Fia-block=  3.076D-01 for orbital      4a         
          max. resid. fock norm         =  7.488D+00 for orbital    743a         

 ITERATION  ENERGY          1e-ENERGY        2e-ENERGY     RMS[dD(SAO)]   TOL
   2  -275.03458473884    -930.50478734     369.77322889    0.306D-02 0.340D-13
                            Exc = -42.6399662264     Coul =  412.413195113    
                              N = 56.000313838    
                            current damping = 0.650
 
          Norm of current diis error:  3.0524    
          max. resid. norm for Fia-block=  1.400D-01 for orbital      2a         
          max. resid. fock norm         =  1.860D-01 for orbital    780a         

 ITERATION  ENERGY          1e-ENERGY        2e-ENERGY     RMS[dD(SAO)]   TOL
   3  -275.20398222989    -932.22576594     371.32481000    0.131D-02 0.340D-13
                            Exc = -42.9506152839     Coul =  414.275425282    
                              N = 56.000273228    
                            current damping = 0.550
 
          Norm of current diis error:  1.4191    
          max. resid. norm for Fia-block=  5.682D-02 for orbital      2a         
          max. resid. fock norm         =  5.910D-02 for orbital      2a         

 ITERATION  ENERGY          1e-ENERGY        2e-ENERGY     RMS[dD(SAO)]   TOL
   4  -275.25298102970    -933.78152023     372.83156549    0.662D-03 0.340D-13
                            Exc = -43.1745555794     Coul =  416.006121068    
                              N = 56.000247314    
                            current damping = 0.450
 
          Norm of current diis error: 0.52024    
          max. resid. norm for Fia-block=  2.077D-02 for orbital      2a         
          max. resid. fock norm         =  2.293D-02 for orbital      9a         

 ITERATION  ENERGY          1e-ENERGY        2e-ENERGY     RMS[dD(SAO)]   TOL
   5  -275.26093170522    -934.05380139     373.09589598    0.317D-03 0.340D-13
                            Exc = -43.2456052340     Coul =  416.341501212    
                              N = 56.000235728    
                            current damping = 0.300
 
          Norm of current diis error: 0.18400    
          max. resid. norm for Fia-block=  7.179D-03 for orbital     14a         
          max. resid. fock norm         =  9.316D-03 for orbital    790a         
          mo-orthogonalization: Cholesky decomposition

 ITERATION  ENERGY          1e-ENERGY        2e-ENERGY     RMS[dD(SAO)]   TOL
   6  -275.26197961520    -934.40013219     373.44117886    0.128D-03 0.340D-13
                            Exc = -43.2867976688     Coul =  416.727976531    
                              N = 56.000230578    
                            current damping = 0.150
 
          Norm of current diis error: 0.58209E-01
          max. resid. norm for Fia-block=  1.933D-03 for orbital     24a         
          max. resid. fock norm         =  2.947D-03 for orbital    483a         

 ITERATION  ENERGY          1e-ENERGY        2e-ENERGY     RMS[dD(SAO)]   TOL
   7  -275.26205146781    -934.29797593     373.33895075    0.509D-04 0.340D-13
                            Exc = -43.2858067523     Coul =  416.624757503    
                              N = 56.000229334    
                            current damping = 0.200
 
          Norm of current diis error: 0.31983E-01
          max. resid. norm for Fia-block=  6.706D-04 for orbital     19a         
          max. resid. fock norm         =  1.373D-03 for orbital    802a         

 ITERATION  ENERGY          1e-ENERGY        2e-ENERGY     RMS[dD(SAO)]   TOL
   8  -275.26207131024    -934.34801330     373.38896828    0.937D-05 0.340D-13
                            Exc = -43.2891383058     Coul =  416.678106584    
                              N = 56.000229052    
                            current damping = 0.250
 
          Norm of current diis error: 0.41138E-02
          max. resid. norm for Fia-block=  1.596D-04 for orbital     20a         
          max. resid. fock norm         =  3.485D-04 for orbital    802a         

 ITERATION  ENERGY          1e-ENERGY        2e-ENERGY     RMS[dD(SAO)]   TOL
   9  -275.26207150033    -934.35632668     373.39728147    0.193D-05 0.340D-13
                            Exc = -43.2899696191     Coul =  416.687251089    
                              N = 56.000228974    
                            current damping = 0.100
 
          Norm of current diis error: 0.29204E-02
          max. resid. norm for Fia-block=  5.749D-05 for orbital     20a         
          max. resid. fock norm         =  1.371D-04 for orbital    802a         

 ITERATION  ENERGY          1e-ENERGY        2e-ENERGY     RMS[dD(SAO)]   TOL
  10  -275.26207165702    -934.35372644     373.39468107    0.728D-06 0.340D-13
                            Exc = -43.2897430847     Coul =  416.684424157    
                              N = 56.000228968    
                            current damping = 0.150
 
          Norm of current diis error: 0.61677E-03
          max. resid. norm for Fia-block=  3.733D-05 for orbital     28a         
          max. resid. fock norm         =  8.042D-05 for orbital      2a         
          mo-orthogonalization: Cholesky decomposition

 ITERATION  ENERGY          1e-ENERGY        2e-ENERGY     RMS[dD(SAO)]   TOL
  11  -275.26207163982    -934.35331977     373.39427442    0.289D-06 0.340D-13
                            Exc = -43.2897120000     Coul =  416.683986424    
                              N = 56.000228965    
                            current damping = 0.200
 
          Norm of current diis error: 0.10467E-02
          max. resid. norm for Fia-block=  1.819D-05 for orbital     28a         
          max. resid. fock norm         =  3.951D-05 for orbital      2a         

 ITERATION  ENERGY          1e-ENERGY        2e-ENERGY     RMS[dD(SAO)]   TOL
  12  -275.26207166434    -934.35325619     373.39421081    0.134D-06 0.340D-13
                            Exc = -43.2897083288     Coul =  416.683919143    
                              N = 56.000228964    
                            current damping = 0.050
 
          Norm of current diis error: 0.28195E-03
          max. resid. norm for Fia-block=  6.632D-06 for orbital     28a         
          max. resid. fock norm         =  1.348D-05 for orbital      2a         

 DENSITY CONVERGED !


 ITERATION  ENERGY          1e-ENERGY        2e-ENERGY     RMS[dD(SAO)]   TOL
  13  -275.26207166619    -934.35354182     373.39449644    0.622D-07 0.340D-13
                            Exc = -43.2897303809     Coul =  416.684226823    
                              N = 56.000228963    
                            current damping = 0.100
 
          Norm of current diis error: 0.51931E-04
          max. resid. norm for Fia-block=  1.323D-06 for orbital     26a         
          max. resid. fock norm         =  2.308D-06 for orbital    802a         

 DENSITY CONVERGED !


 ITERATION  ENERGY          1e-ENERGY        2e-ENERGY     RMS[dD(SAO)]   TOL
  14  -275.26207166622    -934.35338486     373.39433948    0.213D-07 0.340D-13
                            Exc = -43.2897192135     Coul =  416.684058697    
                              N = 56.000228963    
                            current damping = 0.150
 
          Norm of current diis error: 0.33542E-04
          max. resid. norm for Fia-block=  6.610D-07 for orbital     26a         
          max. resid. fock norm         =  1.255D-06 for orbital    802a         

 DENSITY CONVERGED !


 ITERATION  ENERGY          1e-ENERGY        2e-ENERGY     RMS[dD(SAO)]   TOL
  15  -275.26207166624    -934.35344965     373.39440427    0.950D-08 0.340D-13
                            Exc = -43.2897235516     Coul =  416.684127826    
                              N = 56.000228963    
                            current damping = 0.200
 
          Norm of current diis error: 0.45942E-05
          max. resid. norm for Fia-block=  1.665D-07 for orbital     15a         
          max. resid. fock norm         =  2.595D-07 for orbital    554a         
          mo-orthogonalization: Cholesky decomposition

 ENERGY & DENSITY CONVERGED !

          Overall gridpoints after grid construction =        307018

 ITERATION  ENERGY          1e-ENERGY        2e-ENERGY     RMS[dD(SAO)]   TOL
  16  -275.26191942480    -934.35345064     373.39455751    0.132D-08 0.340D-13
                            Exc = -43.2895715759     Coul =  416.684129085    
                              N = 56.000000306    
                            current damping = 0.050
 
          Norm of current diis error: 0.14511E-05
          max. resid. norm for Fia-block=  6.431D-08 for orbital     15a         
          max. resid. fock norm         =  9.783D-08 for orbital    554a         

 End of SCF iterations

   convergence criteria satisfied after    16 iterations


                  ------------------------------------------ 
                 |  total energy      =   -275.26191942480  |
                  ------------------------------------------ 
                 :  kinetic energy    =    273.95653674679  :
                 :  potential energy  =   -549.21845617159  :
                 :  virial theorem    =      1.99525767066  :
                 :  wavefunction norm =      1.00000000000  :
                  .......................................... 


 <geterg> : there is no data group $energy 


 <skperg> : $end is missing 


 orbitals $scfmo  will be written to file mos

    irrep                 24a         25a         26a         27a         28a   
 eigenvalues H         -0.28798    -0.28429    -0.27487    -0.26393    -0.26349
            eV          -7.8364     -7.7359     -7.4796     -7.1818     -7.1701
 occupation              2.0000      2.0000      2.0000      2.0000      2.0000 

    irrep                 29a         30a         31a         32a         33a   
 eigenvalues H         -0.00945    -0.00774     0.01895     0.02074     0.04084
            eV          -0.2572     -0.2107      0.5156      0.5642      1.1112
 
 
 
 
 ==============================================================================
                           electrostatic moments
 ==============================================================================

 reference point for electrostatic moments:    0.00000   0.00000   0.00000

 
              nuc           elec       ->  total
 ------------------------------------------------------------------------------
                          charge      
 ------------------------------------------------------------------------------
          56.000000     -56.000000       0.000000
 
 ------------------------------------------------------------------------------
                       dipole moment  
 ------------------------------------------------------------------------------
   x      -0.001547       0.001526      -0.000021
   y      -0.113628       0.151173       0.037545
   z     351.484996    -351.532222      -0.047227
 
   | dipole moment | =     0.0603 a.u. =     0.1533 debye 
 
 ------------------------------------------------------------------------------
                     quadrupole moment
 ------------------------------------------------------------------------------
  xx     579.816802    -612.512365     -32.695563
  yy      59.416558     -96.047615     -36.631058
  zz    2731.241438   -2767.576552     -36.335114
  xy      -0.007304       0.006215      -0.001089
  xz       0.047632      -0.046600       0.001032
  yz     -11.278777      11.571900       0.293123
 
     1/3  trace=     -35.220578
     anisotropy=       3.829985
 
 ==============================================================================
 


    ------------------------------------------------------------------------
         total  cpu-time : 14 minutes and 55 seconds
         total wall-time :  2 minutes and  0 seconds
    ------------------------------------------------------------------------

   ****  ridft : all done  ****


    2018-04-24 21:21:13.843 

