 operating system is UNIX !

 dscf (gplogin2.gp.local) : TURBOMOLE V7.3 ( 22118 ) 1 Jul 2018 at 20:38:15
 Copyright (C) 2018 TURBOMOLE GmbH, Karlsruhe


    2019-02-08 17:21:20.619 

no calculation of wave function, analysis of properties only


                             d s c f - program

                   idea & directorship : reinhart ahlrichs
                   program development : marco haeser
                                         michael baer
                           dft version : oliver treutler


                          quantum chemistry group
                          universitaet  karlsruhe
                                  germany




                          References             
                                                 
          TURBOMOLE:                             
              R. Ahlrichs, M. Baer, M. Haeser, H. Horn, and
              C. Koelmel
              Electronic structure calculations on workstation
              computers: the program system TURBOMOLE
              Chem. Phys. Lett. 162: 165 (1989)
          Density Functional:                              
              O. Treutler and R. Ahlrichs                      
              Efficient Molecular Numerical Integration Schemes
              J. Chem. Phys. 102: 346 (1995)                   
          Parallel Version:                                
              Performance of parallel TURBOMOLE for Density    
              Functional Calculations                          
              M. v. Arnim and R. Ahlrichs                      
              J. Comp. Chem. 19: 1746 (1998)                   
                                         




              +--------------------------------------------------+
              | Atomic coordinate, charge and isotop information |
              +--------------------------------------------------+

                    atomic coordinates            atom    charge  isotop
        -18.40789852   -2.67100833    0.00000000    c      6.000     0
        -18.51265409   -1.30772256    2.29329896    c      6.000     0
        -18.51265409    1.30772256    2.29329896    c      6.000     0
        -18.40789852    2.67100833    0.00000000    c      6.000     0
        -18.51265409    1.30772256   -2.29329896    c      6.000     0
        -18.51265409   -1.30772256   -2.29329896    c      6.000     0
        -17.93046689   -5.29921739    0.00000000    c      6.000     0
        -17.14180580   -7.46604592    0.00000000    c      6.000     0
        -17.93046689    5.29921739    0.00000000    c      6.000     0
        -17.14180580    7.46604592    0.00000000    c      6.000     0
        -15.81815943    9.78625799    0.00000000    c      6.000     0
        -15.02210366   10.89793107    2.29329896    c      6.000     0
        -13.34092794   12.90147828    2.29329896    c      6.000     0
        -12.38437731   13.87848018    0.00000000    c      6.000     0
        -13.34092794   12.90147828   -2.29329896    c      6.000     0
        -15.02210366   10.89793107   -2.29329896    c      6.000     0
        -15.81815943   -9.78625799    0.00000000    c      6.000     0
        -15.02210366  -10.89793107    2.29329896    c      6.000     0
        -13.34092794  -12.90147828    2.29329896    c      6.000     0
        -12.38437731  -13.87848018    0.00000000    c      6.000     0
        -13.34092794  -12.90147828   -2.29329896    c      6.000     0
        -15.02210366  -10.89793107   -2.29329896    c      6.000     0
        -10.32926325   15.58491799    0.00000000    c      6.000     0
         -8.33230327   16.73786337    0.00000000    c      6.000     0
         -5.82692775   17.66442545    0.00000000    c      6.000     0
         -4.50254397   18.00432164    2.29329896    c      6.000     0
         -1.92683333   18.45848892    2.29329896    c      6.000     0
         -0.56606832   18.59205690    0.00000000    c      6.000     0
         -1.92683333   18.45848892   -2.29329896    c      6.000     0
         -4.50254397   18.00432164   -2.29329896    c      6.000     0
         11.51711033   14.60620358    0.00000000    c      6.000     0
         10.38884801   15.37856746   -2.29329896    c      6.000     0
          8.12380609   16.68629002   -2.29329896    c      6.000     0
          6.89078819   17.27721191    0.00000000    c      6.000     0
          8.12380609   16.68629002    2.29329896    c      6.000     0
         10.38884801   15.37856746    2.29329896    c      6.000     0
          4.37597657   18.17784852    0.00000000    c      6.000     0
          2.10511747   18.57826225    0.00000000    c      6.000     0
         17.84347190    5.10284336    2.29329896    c      6.000     0
         16.94893699    7.56055785    2.29329896    c      6.000     0
         16.38422775    8.80579891    0.00000000    c      6.000     0
         16.94893699    7.56055785   -2.29329896    c      6.000     0
         17.84347190    5.10284336   -2.29329896    c      6.000     0
         13.55449032   12.87863114    0.00000000    c      6.000     0
         15.03668834   11.11221633    0.00000000    c      6.000     0
         18.21130505    3.78594527    0.00000000    c      6.000     0
        -10.32926325  -15.58491799    0.00000000    c      6.000     0
         -8.33230327  -16.73786337    0.00000000    c      6.000     0
         -5.82692775  -17.66442545    0.00000000    c      6.000     0
         -4.50254397  -18.00432164   -2.29329896    c      6.000     0
         -1.92683333  -18.45848892   -2.29329896    c      6.000     0
         -0.56606832  -18.59205690    0.00000000    c      6.000     0
         -1.92683333  -18.45848892    2.29329896    c      6.000     0
         -4.50254397  -18.00432164    2.29329896    c      6.000     0
         16.38422775   -8.80579891    0.00000000    c      6.000     0
         16.94893699   -7.56055785   -2.29329896    c      6.000     0
         17.84347190   -5.10284336   -2.29329896    c      6.000     0
         18.21130505   -3.78594527    0.00000000    c      6.000     0
         17.84347190   -5.10284336    2.29329896    c      6.000     0
         16.94893699   -7.56055785    2.29329896    c      6.000     0
         18.66156652   -1.15294538    0.00000000    c      6.000     0
         18.66156652    1.15294538    0.00000000    c      6.000     0
          6.89078819  -17.27721191    0.00000000    c      6.000     0
          8.12380609  -16.68629002    2.29329896    c      6.000     0
         10.38884801  -15.37856746    2.29329896    c      6.000     0
         11.51711033  -14.60620358    0.00000000    c      6.000     0
         10.38884801  -15.37856746   -2.29329896    c      6.000     0
          8.12380609  -16.68629002   -2.29329896    c      6.000     0
          4.37597657  -18.17784852    0.00000000    c      6.000     0
          2.10511747  -18.57826225    0.00000000    c      6.000     0
         13.55449032  -12.87863114    0.00000000    c      6.000     0
         15.03668834  -11.11221633    0.00000000    c      6.000     0
        -18.48966975   -2.33827874    4.06624100    h      1.000     0
        -18.48966975    2.33827874    4.06624100    h      1.000     0
        -18.48966975    2.33827874   -4.06624100    h      1.000     0
        -18.48966975   -2.33827874   -4.06624100    h      1.000     0
        -15.66692537   10.09370518    4.06624100    h      1.000     0
        -12.66089216   13.67615606    4.06624100    h      1.000     0
        -12.66089216   13.67615606   -4.06624100    h      1.000     0
        -15.66692537   10.09370518   -4.06624100    h      1.000     0
        -15.66692537  -10.09370518    4.06624100    h      1.000     0
        -12.66089216  -13.67615606    4.06624100    h      1.000     0
        -12.66089216  -13.67615606   -4.06624100    h      1.000     0
        -15.66692537  -10.09370518   -4.06624100    h      1.000     0
         -5.51345249   17.80273228    4.06624100    h      1.000     0
         -0.90794242   18.61480796    4.06624100    h      1.000     0
         -0.90794242   18.61480796   -4.06624100    h      1.000     0
         -5.51345249   17.80273228   -4.06624100    h      1.000     0
         11.26984367   14.84338434   -4.06624100    h      1.000     0
          7.21982608   17.18166308   -4.06624100    h      1.000     0
          7.21982608   17.18166308    4.06624100    h      1.000     0
         11.26984367   14.84338434    4.06624100    h      1.000     0
         18.17434465    4.12657622    4.06624100    h      1.000     0
         16.57486779    8.52110278    4.06624100    h      1.000     0
         16.57486779    8.52110278   -4.06624100    h      1.000     0
         18.17434465    4.12657622   -4.06624100    h      1.000     0
         -5.51345249  -17.80273228   -4.06624100    h      1.000     0
         -0.90794242  -18.61480796   -4.06624100    h      1.000     0
         -0.90794242  -18.61480796    4.06624100    h      1.000     0
         -5.51345249  -17.80273228    4.06624100    h      1.000     0
         16.57486779   -8.52110278   -4.06624100    h      1.000     0
         18.17434465   -4.12657622   -4.06624100    h      1.000     0
         18.17434465   -4.12657622    4.06624100    h      1.000     0
         16.57486779   -8.52110278    4.06624100    h      1.000     0
          7.21982608  -17.18166308    4.06624100    h      1.000     0
         11.26984367  -14.84338434    4.06624100    h      1.000     0
         11.26984367  -14.84338434   -4.06624100    h      1.000     0
          7.21982608  -17.18166308   -4.06624100    h      1.000     0
 
       center of nuclear mass  :    0.00000000    0.00000000    0.00000000
       center of nuclear charge:    0.00000000    0.00000000    0.00000000

              +--------------------------------------------------+
              |               basis set information              |
              +--------------------------------------------------+

              we will work with the 1s 3p 5d 7f 9g ... basis set
              ...i.e. with spherical basis functions...

   type   atoms  prim   cont   basis
   ---------------------------------------------------------------------------
    c       72     50     30   cc-pVTZ   [4s3p2d1f|18s5p2d1f]
    h       36     16     14   cc-pVTZ   [3s2p1d|5s2p1d]
   ---------------------------------------------------------------------------
   total:  108   4176   2664
   ---------------------------------------------------------------------------

   total number of primitive shells          :   34
   total number of contracted shells         :  936
   total number of cartesian basis functions : 3060
   total number of SCF-basis functions       : 2664


 integral neglect threshold       :  0.11E-13
 integral storage threshold THIZE :  0.10E-04
 integral storage threshold THIME :         5


 DENSITY CONVERGENCE CHECK SWITCHED ON !
 SCF CONVERGENCE IF RMS(delta[D]) <     0.1000000000E-06


 symmetry group of the molecule :   c1 

 the group has the following generators :
   c1(z)

    1 symmetry operations found

 there are 1 real representations :   a   

 maximum number of shells which are related by symmetry :  1


    mo occupation :
   irrep   mo's   occupied
    a     2664      234
 
 number of basis functions   :                   2664
 number of occupied orbitals :                    234
 

 automatic virtual orbital shift switched on 
      shift if e(lumo)-e(homo) < 0.10000000    


          ------------------------
          nuclear repulsion energy  :   7191.60366355    
          ------------------------


         -----------------
         -S,T+V- integrals
         -----------------

 1e-integrals will be neglected if expon. factor < 0.109214E-14
 
   Difference densities algorithm switched on.
   The maximal number of linear combinations of
   difference densities is                    20 .

 DIIS switched on: error vector is FDS-SDF
 Max. Iterations for DIIS is     :   5
 DIIS matrix (see manual) 
    Scaling factor of diagonals  :  1.200
    threshold for scaling factor :  0.000

 scf convergence criterion : increment of total energy < .1000000D-08
                  and increment of one-electron energy < .1000000D-05

  MOs are in ASCII format !


 reading orbital data $scfmo  from file mos
 orbital characterization : scfconv=9
 
 
 
 ==============================================================================
                           electrostatic moments
 ==============================================================================

 reference point for electrostatic moments:    0.00000   0.00000   0.00000

 
              nuc           elec       ->  total
 ------------------------------------------------------------------------------
                          charge      
 ------------------------------------------------------------------------------
         468.000000    -468.000000       0.000000
 
 ------------------------------------------------------------------------------
                       dipole moment  
 ------------------------------------------------------------------------------
   x       0.000000      -0.000000      -0.000000
   y       0.000000      -0.000000      -0.000000
   z       0.000000       0.000000       0.000000
 
   | dipole moment | =     0.0000 a.u. =     0.0000 debye 
 
 ------------------------------------------------------------------------------
                     quadrupole moment
 ------------------------------------------------------------------------------
  xx   81011.007329  -81345.107321    -334.099992
  yy   81011.007329  -81345.107321    -334.099992
  zz    1731.226913   -1997.541186    -266.314273
  xy       0.000000      -0.000000      -0.000000
  xz       0.000000      -0.000000      -0.000000
  yz       0.000000      -0.000000      -0.000000
 
     1/3  trace=    -311.504753
     anisotropy=      67.785719



 ==============================================================================
                  MULLIKEN POPULATION ANALYSIS (CAO-BASIS)
 ==============================================================================

         BRUTTO POPULATIONS  
 
       values displayed are larger than   0.010000
 
 
 atomic populations from total density:
 
 atom      charge    n(s)      n(p)      n(d)      n(f)      n(g)
     1c      0.11989   3.04910   2.72557   0.09425   0.01120
     2c     -0.14779   3.25550   2.79250   0.08994   0.00985
     3c     -0.14779   3.25550   2.79250   0.08994   0.00985
     4c      0.11989   3.04910   2.72557   0.09425   0.01120
     5c     -0.14779   3.25550   2.79250   0.08994   0.00985
     6c     -0.14779   3.25550   2.79250   0.08994   0.00985
     7c     -0.14026   3.05306   3.00344   0.07178   0.01197
     8c     -0.14026   3.05306   3.00344   0.07178   0.01197
     9c     -0.14026   3.05306   3.00344   0.07178   0.01197
    10c     -0.14026   3.05306   3.00344   0.07178   0.01197
    11c      0.11989   3.04910   2.72557   0.09425   0.01120
    12c     -0.14779   3.25550   2.79250   0.08994   0.00985
    13c     -0.14779   3.25550   2.79250   0.08994   0.00985
    14c      0.11989   3.04910   2.72557   0.09425   0.01120
    15c     -0.14779   3.25550   2.79250   0.08994   0.00985
    16c     -0.14779   3.25550   2.79250   0.08994   0.00985
    17c      0.11989   3.04910   2.72557   0.09425   0.01120
    18c     -0.14779   3.25550   2.79250   0.08994   0.00985
    19c     -0.14779   3.25550   2.79250   0.08994   0.00985
    20c      0.11989   3.04910   2.72557   0.09425   0.01120
    21c     -0.14779   3.25550   2.79250   0.08994   0.00985
    22c     -0.14779   3.25550   2.79250   0.08994   0.00985
    23c     -0.14026   3.05306   3.00344   0.07178   0.01197
    24c     -0.14026   3.05306   3.00344   0.07178   0.01197
    25c      0.11989   3.04910   2.72557   0.09425   0.01120
    26c     -0.14779   3.25550   2.79250   0.08994   0.00985
    27c     -0.14779   3.25550   2.79250   0.08994   0.00985
    28c      0.11989   3.04910   2.72557   0.09425   0.01120
    29c     -0.14779   3.25550   2.79250   0.08994   0.00985
    30c     -0.14779   3.25550   2.79250   0.08994   0.00985
    31c      0.11989   3.04910   2.72557   0.09425   0.01120
    32c     -0.14779   3.25550   2.79250   0.08994   0.00985
    33c     -0.14779   3.25550   2.79250   0.08994   0.00985
    34c      0.11989   3.04910   2.72557   0.09425   0.01120
    35c     -0.14779   3.25550   2.79250   0.08994   0.00985
    36c     -0.14779   3.25550   2.79250   0.08994   0.00985
    37c     -0.14026   3.05306   3.00344   0.07178   0.01197
    38c     -0.14026   3.05306   3.00344   0.07178   0.01197
    39c     -0.14779   3.25550   2.79250   0.08994   0.00985
    40c     -0.14779   3.25550   2.79250   0.08994   0.00985
    41c      0.11989   3.04910   2.72557   0.09425   0.01120
    42c     -0.14779   3.25550   2.79250   0.08994   0.00985
    43c     -0.14779   3.25550   2.79250   0.08994   0.00985
    44c     -0.14026   3.05306   3.00344   0.07178   0.01197
    45c     -0.14026   3.05306   3.00344   0.07178   0.01197
    46c      0.11989   3.04910   2.72557   0.09425   0.01120
    47c     -0.14026   3.05306   3.00344   0.07178   0.01197
    48c     -0.14026   3.05306   3.00344   0.07178   0.01197
    49c      0.11989   3.04910   2.72557   0.09425   0.01120
    50c     -0.14779   3.25550   2.79250   0.08994   0.00985
    51c     -0.14779   3.25550   2.79250   0.08994   0.00985
    52c      0.11989   3.04910   2.72557   0.09425   0.01120
    53c     -0.14779   3.25550   2.79250   0.08994   0.00985
    54c     -0.14779   3.25550   2.79250   0.08994   0.00985
    55c      0.11989   3.04910   2.72557   0.09425   0.01120
    56c     -0.14779   3.25550   2.79250   0.08994   0.00985
    57c     -0.14779   3.25550   2.79250   0.08994   0.00985
    58c      0.11989   3.04910   2.72557   0.09425   0.01120
    59c     -0.14779   3.25550   2.79250   0.08994   0.00985
    60c     -0.14779   3.25550   2.79250   0.08994   0.00985
    61c     -0.14026   3.05306   3.00344   0.07178   0.01197
    62c     -0.14026   3.05306   3.00344   0.07178   0.01197
    63c      0.11989   3.04910   2.72557   0.09425   0.01120
    64c     -0.14779   3.25550   2.79250   0.08994   0.00985
    65c     -0.14779   3.25550   2.79250   0.08994   0.00985
    66c      0.11989   3.04910   2.72557   0.09425   0.01120
    67c     -0.14779   3.25550   2.79250   0.08994   0.00985
    68c     -0.14779   3.25550   2.79250   0.08994   0.00985
    69c     -0.14026   3.05306   3.00344   0.07178   0.01197
    70c     -0.14026   3.05306   3.00344   0.07178   0.01197
    71c     -0.14026   3.05306   3.00344   0.07178   0.01197
    72c     -0.14026   3.05306   3.00344   0.07178   0.01197
    73h      0.15798   0.81243   0.02726   0.00233
    74h      0.15798   0.81243   0.02726   0.00233
    75h      0.15798   0.81243   0.02726   0.00233
    76h      0.15798   0.81243   0.02726   0.00233
    77h      0.15798   0.81243   0.02726   0.00233
    78h      0.15798   0.81243   0.02726   0.00233
    79h      0.15798   0.81243   0.02726   0.00233
    80h      0.15798   0.81243   0.02726   0.00233
    81h      0.15798   0.81243   0.02726   0.00233
    82h      0.15798   0.81243   0.02726   0.00233
    83h      0.15798   0.81243   0.02726   0.00233
    84h      0.15798   0.81243   0.02726   0.00233
    85h      0.15798   0.81243   0.02726   0.00233
    86h      0.15798   0.81243   0.02726   0.00233
    87h      0.15798   0.81243   0.02726   0.00233
    88h      0.15798   0.81243   0.02726   0.00233
    89h      0.15798   0.81243   0.02726   0.00233
    90h      0.15798   0.81243   0.02726   0.00233
    91h      0.15798   0.81243   0.02726   0.00233
    92h      0.15798   0.81243   0.02726   0.00233
    93h      0.15798   0.81243   0.02726   0.00233
    94h      0.15798   0.81243   0.02726   0.00233
    95h      0.15798   0.81243   0.02726   0.00233
    96h      0.15798   0.81243   0.02726   0.00233
    97h      0.15798   0.81243   0.02726   0.00233
    98h      0.15798   0.81243   0.02726   0.00233
    99h      0.15798   0.81243   0.02726   0.00233
   100h      0.15798   0.81243   0.02726   0.00233
   101h      0.15798   0.81243   0.02726   0.00233
   102h      0.15798   0.81243   0.02726   0.00233
   103h      0.15798   0.81243   0.02726   0.00233
   104h      0.15798   0.81243   0.02726   0.00233
   105h      0.15798   0.81243   0.02726   0.00233
   106h      0.15798   0.81243   0.02726   0.00233
   107h      0.15798   0.81243   0.02726   0.00233
   108h      0.15798   0.81243   0.02726   0.00233
 
 moments (from total density versus population analysis)
 <charge> =             0.000000            0.000000
 <xx  >   =          -334.099992            3.438617
 <yy  >   =          -334.099992            3.438617
 <zz  >   =          -266.314273           66.051935
 <xy  >   =            -0.000000            0.000000
 <xz  >   =            -0.000000            0.000000
 <yz  >   =            -0.000000            0.000000
 
 
 ==============================================================================
 


    ------------------------------------------------------------------------
         total  cpu-time :  24.38 seconds
         total wall-time :  25.21 seconds
    ------------------------------------------------------------------------

   ****  dscf : all done  ****


    2019-02-08 17:21:45.804 

