
   OpenMP run-time library returned nthreads = 28
 operating system is UNIX !

 dscf (c-19-411) : TURBOMOLE V7.3 ( 22142 ) 4 Jul 2018 at 18:12:42
 Copyright (C) 2018 TURBOMOLE GmbH, Karlsruhe


    2019-04-02 19:57:10.597 



                             d s c f - program

                   idea & directorship : reinhart ahlrichs
                   program development : marco haeser
                                         michael baer
                           dft version : oliver treutler


                          quantum chemistry group
                          universitaet  karlsruhe
                                  germany




                          References             
                                                 
          TURBOMOLE:                             
              R. Ahlrichs, M. Baer, M. Haeser, H. Horn, and
              C. Koelmel
              Electronic structure calculations on workstation
              computers: the program system TURBOMOLE
              Chem. Phys. Lett. 162: 165 (1989)
          Density Functional:                              
              O. Treutler and R. Ahlrichs                      
              Efficient Molecular Numerical Integration Schemes
              J. Chem. Phys. 102: 346 (1995)                   
          Parallel Version:                                
              Performance of parallel TURBOMOLE for Density    
              Functional Calculations                          
              M. v. Arnim and R. Ahlrichs                      
              J. Comp. Chem. 19: 1746 (1998)                   
                                         




              +--------------------------------------------------+
              | Atomic coordinate, charge and isotop information |
              +--------------------------------------------------+

                    atomic coordinates            atom    charge  isotop
         -4.89018803   -0.61058122    0.88714758    c      6.000     0
         -4.93292050   -1.65609180   -0.88745217    h      1.000     0
         -5.02618793   -1.98777749    2.41452974    h      1.000     0
         -6.56875430    0.57754679    0.96179744    h      1.000     0
         -2.47470942    0.93993890    1.10560809    c      6.000     0
         -2.48924287    2.04706832    2.84657210    h      1.000     0
         -2.38554629    2.29710149   -0.44744211    h      1.000     0
         -0.10739249   -0.69591110    1.05529898    c      6.000     0
         -0.16284764   -2.02835421    2.63782216    h      1.000     0
         -0.10168464   -1.84596637   -0.66418946    h      1.000     0
          2.32737925    0.83160344    1.19436826    c      6.000     0
          2.29277334    1.99094351    2.89996058    h      1.000     0
          2.39295516    2.13799197   -0.40271129    h      1.000     0
          4.67249002   -0.83742156    1.17015902    c      6.000     0
          4.76346834   -1.95636434   -0.55727448    h      1.000     0
          6.40189018    0.27229016    1.29240016    h      1.000     0
          4.64739787   -2.15308636    2.75638896    h      1.000     0
          0.07967505    0.38029242    7.77907310    c      6.000     0
          0.13053186    2.61975675    7.22757319    o      8.000     0
          2.21994159   -1.04055042    7.97337464    n      7.000     0
          3.86578014   -0.24198897    7.46567656    h      1.000     0
          2.14635950   -2.91494457    8.22172798    h      1.000     0
         -2.35848925   -1.01609706    8.27881842    c      6.000     0
         -2.08022707   -2.83159732    9.19935006    h      1.000     0
         -3.31512064   -1.31525758    6.48204159    h      1.000     0
         -3.56402860    0.16920801    9.44151372    h      1.000     0
 
       center of nuclear mass  :   -0.03057277    0.04356050    4.10983421
       center of nuclear charge:   -0.05458783   -0.02451533    4.00159136

              +--------------------------------------------------+
              |               basis set information              |
              +--------------------------------------------------+

              we will work with the 1s 3p 5d 7f 9g ... basis set
              ...i.e. with spherical basis functions...

   type   atoms  prim   cont   basis
   ---------------------------------------------------------------------------
    c        7     50     30   cc-pVTZ   [4s3p2d1f|18s5p2d1f]
    h       17     16     14   cc-pVTZ   [3s2p1d|5s2p1d]
    o        1     50     30   cc-pVTZ   [4s3p2d1f|18s5p2d1f]
    n        1     50     30   cc-pVTZ   [4s3p2d1f|18s5p2d1f]
   ---------------------------------------------------------------------------
   total:   26    722    508
   ---------------------------------------------------------------------------

   total number of primitive shells          :   86
   total number of contracted shells         :  192
   total number of cartesian basis functions :  570
   total number of SCF-basis functions       :  508


 integral neglect threshold       :  0.58E-13
 integral storage threshold THIZE :  0.10E-04
 integral storage threshold THIME :         5


 DENSITY CONVERGENCE CHECK SWITCHED ON !
 SCF CONVERGENCE IF RMS(delta[D]) <     0.1000000000E-06


 symmetry group of the molecule :   c1 

 the group has the following generators :
   c1(z)

    1 symmetry operations found

 there are 1 real representations :   a   

 maximum number of shells which are related by symmetry :  1


    mo occupation :
   irrep   mo's   occupied
    a      508       37
 
 number of basis functions   :                    508
 number of occupied orbitals :                     37
 

 automatic virtual orbital shift switched on 
      shift if e(lumo)-e(homo) < 0.10000000    


          ------------------------
          nuclear repulsion energy  :   478.481687286    
          ------------------------


         -----------------
         -S,T+V- integrals
         -----------------

 1e-integrals will be neglected if expon. factor < 0.586309E-14
 
   Difference densities algorithm switched on.
   The maximal number of linear combinations of
   difference densities is                    20 .

 DIIS switched on: error vector is FDS-SDF
 Max. Iterations for DIIS is     :   5
 DIIS matrix (see manual) 
    Scaling factor of diagonals  :  1.200
    threshold for scaling factor :  0.000

 scf convergence criterion : increment of total energy < .1000000D-08
                  and increment of one-electron energy < .1000000D-05

  MOs are in ASCII format !


 reading orbital data $scfmo  from file mos
 orbital characterization : scfconv=9

 DSCF restart information will be dumped onto file mos

 
                                              current damping :  0.700
 ITERATION  ENERGY          1e-ENERGY        2e-ENERGY     RMS[dD(SAO)]   TOL
   1  -404.36881328700    -1498.8211531     615.97065252    0.000D+00 0.585D-13
          max. resid. norm for Fia-block=  1.034D-01 for orbital      1a         
          max. resid. fock norm         =  1.683D-01 for orbital    507a         
          Delta Eig. =    28.7446835359 eV 
 
                                              current damping :  0.650
 ITERATION  ENERGY          1e-ENERGY        2e-ENERGY     RMS[dD(SAO)]   TOL
   2  -404.44129831557    -1497.7073057     614.78432012    0.801D-03 0.372D-13
          Norm of current diis error: 0.56820    
          max. resid. norm for Fia-block=  4.681D-02 for orbital      1a         
          max. resid. fock norm         =  7.609D-02 for orbital    502a         
          Delta Eig. =    11.8332673420 eV 
 
                                              current damping :  0.600
 ITERATION  ENERGY          1e-ENERGY        2e-ENERGY     RMS[dD(SAO)]   TOL
   3  -404.45631810006    -1497.9404578     615.00245241    0.396D-03 0.284D-13
          Norm of current diis error: 0.25789    
          max. resid. norm for Fia-block=  2.281D-02 for orbital      1a         
          max. resid. fock norm         =  2.577D-02 for orbital    508a         
          Delta Eig. =     5.5637814224 eV 
 
                                              current damping :  0.650
 ITERATION  ENERGY          1e-ENERGY        2e-ENERGY     RMS[dD(SAO)]   TOL
   4  -404.45973026823    -1497.8869897     614.94557213    0.199D-03 0.251D-13
          Norm of current diis error: 0.10703    
          max. resid. norm for Fia-block=  7.349D-03 for orbital     22a         
          max. resid. fock norm         =  1.235D-02 for orbital    502a         
          Delta Eig. =     1.6295796663 eV 
 
                                              current damping :  0.500
 ITERATION  ENERGY          1e-ENERGY        2e-ENERGY     RMS[dD(SAO)]   TOL
   5  -404.46031964454    -1497.8532686     614.91126167    0.742D-04 0.234D-13
          Norm of current diis error: 0.46102E-01
          max. resid. norm for Fia-block=  3.594D-03 for orbital     22a         
          max. resid. fock norm         =  3.782D-03 for orbital    508a         
 mo-orthogonalization: Cholesky decomposition
          Delta Eig. =     0.8224049277 eV 
 
                                              current damping :  0.350
 ITERATION  ENERGY          1e-ENERGY        2e-ENERGY     RMS[dD(SAO)]   TOL
   6  -404.46044271171    -1497.8482841     614.90615413    0.382D-04 0.221D-13
          Norm of current diis error: 0.17871E-01
          max. resid. norm for Fia-block=  1.498D-03 for orbital     22a         
          max. resid. fock norm         =  1.525D-03 for orbital     22a         
          Delta Eig. =     0.2766847806 eV 
 
                                              current damping :  0.200
 ITERATION  ENERGY          1e-ENERGY        2e-ENERGY     RMS[dD(SAO)]   TOL
   7  -404.46046419540    -1497.8436930     614.90154151    0.162D-04 0.208D-13
          Norm of current diis error: 0.60459E-02
          max. resid. norm for Fia-block=  5.683D-04 for orbital     22a         
          max. resid. fock norm         =  5.767D-04 for orbital     22a         
          Delta Eig. =     0.0874175648 eV 
 
                                              current damping :  0.050
 ITERATION  ENERGY          1e-ENERGY        2e-ENERGY     RMS[dD(SAO)]   TOL
   8  -404.46046727010    -1497.8428866     614.90073201    0.652D-05 0.195D-13
          Norm of current diis error: 0.18301E-02
          max. resid. norm for Fia-block=  1.826D-04 for orbital     22a         
          max. resid. fock norm         =  1.877D-04 for orbital     22a         
          Delta Eig. =     0.0139599849 eV 
 
                                              current damping :  0.050
 ITERATION  ENERGY          1e-ENERGY        2e-ENERGY     RMS[dD(SAO)]   TOL
   9  -404.46046764627    -1497.8422275     614.90007255    0.227D-05 0.184D-13
          Norm of current diis error: 0.54544E-03
          max. resid. norm for Fia-block=  5.833D-05 for orbital     36a         
          max. resid. fock norm         =  6.669D-05 for orbital     36a         
          Delta Eig. =     0.0042130508 eV 
 
                                              current damping :  0.100
 ITERATION  ENERGY          1e-ENERGY        2e-ENERGY     RMS[dD(SAO)]   TOL
  10  -404.46046768064    -1497.8423658     614.90021088    0.703D-06 0.175D-13
          Norm of current diis error: 0.22318E-03
          max. resid. norm for Fia-block=  2.737D-05 for orbital     37a         
          max. resid. fock norm         =  3.529D-05 for orbital     37a         
 mo-orthogonalization: Cholesky decomposition
          Delta Eig. =     0.0024844423 eV 
 
                                              current damping :  0.150
 ITERATION  ENERGY          1e-ENERGY        2e-ENERGY     RMS[dD(SAO)]   TOL
  11  -404.46046768484    -1497.8422620     614.90010700    0.213D-06 0.171D-13
          Norm of current diis error: 0.10285E-03
          max. resid. norm for Fia-block=  9.668D-06 for orbital     36a         
          max. resid. fock norm         =  1.234D-05 for orbital     36a         
          Delta Eig. =     0.0007891616 eV 

 DENSITY CONVERGED !

 
                                              current damping :  0.200
 ITERATION  ENERGY          1e-ENERGY        2e-ENERGY     RMS[dD(SAO)]   TOL
  12  -404.46046768567    -1497.8422773     614.90012233    0.886D-07 0.167D-13
          Norm of current diis error: 0.24701E-04
          max. resid. norm for Fia-block=  3.543D-06 for orbital     37a         
          max. resid. fock norm         =  3.604D-06 for orbital     37a         
          Delta Eig. =     0.0000512212 eV 

 DENSITY CONVERGED !

 
                                              current damping :  0.050
 ITERATION  ENERGY          1e-ENERGY        2e-ENERGY     RMS[dD(SAO)]   TOL
  13  -404.46046768575    -1497.8422878     614.90013286    0.302D-07 0.167D-13
          Norm of current diis error: 0.89908E-05
          max. resid. norm for Fia-block=  1.434D-06 for orbital     37a         
          max. resid. fock norm         =  1.480D-06 for orbital     37a         
          Delta Eig. =     0.0000147666 eV 

 ENERGY & DENSITY CONVERGED !

 
                                              current damping :  0.100
 ITERATION  ENERGY          1e-ENERGY        2e-ENERGY     RMS[dD(SAO)]   TOL
  14  -404.46046768576    -1497.8422854     614.90013040    0.139D-07 0.167D-13
          max. resid. norm for Fia-block=  3.466D-07 for orbital     36a         
          max. resid. fock norm         =  3.736D-07 for orbital     36a         

 convergence criteria satisfied after    14 iterations


                  ------------------------------------------ 
                 |  total energy      =   -404.46046768576  |
                  ------------------------------------------ 
                 :  kinetic energy    =    404.03970535781  :
                 :  potential energy  =   -808.50017304357  :
                 :  virial theorem    =      1.99895969480  :
                 :  wavefunction norm =      1.00000000000  :
                  .......................................... 


 orbitals $scfmo  will be written to file mos

    irrep                 33a         34a         35a         36a         37a   
 eigenvalues H         -0.45706    -0.45491    -0.44244    -0.42591    -0.41460
            eV         -12.4372    -12.3787    -12.0394    -11.5897    -11.2818
 occupation              2.0000      2.0000      2.0000      2.0000      2.0000 

    irrep                 38a         39a         40a         41a         42a   
 eigenvalues H          0.11973     0.14899     0.15418     0.17208     0.17841
            eV           3.2580      4.0544      4.1956      4.6825      4.8548
 
 
 
 
 ==============================================================================
                           electrostatic moments
 ==============================================================================

 reference point for electrostatic moments:    0.00000   0.00000   0.00000

 
              nuc           elec       ->  total
 ------------------------------------------------------------------------------
                          charge      
 ------------------------------------------------------------------------------
          74.000000     -74.000000      -0.000000
 
 ------------------------------------------------------------------------------
                       dipole moment  
 ------------------------------------------------------------------------------
   x      -4.039499       4.216716       0.177216
   y      -1.814135       0.397121      -1.417013
   z     296.117760    -295.794925       0.322835
 
   | dipole moment | =     1.4641 a.u. =     3.7213 debye 
 
 ------------------------------------------------------------------------------
                     quadrupole moment
 ------------------------------------------------------------------------------
  xx     660.333094    -702.718135     -42.385040
  yy     147.767753    -194.632967     -46.865214
  zz    2053.271089   -2093.396714     -40.125625
  xy      -7.467367       6.786752      -0.680616
  xz       0.264046       0.665187       0.929233
  yz      -1.093514     -10.524528     -11.618042
 
     1/3  trace=     -43.125293
     anisotropy=      21.076440
 
 ==============================================================================
 


    ------------------------------------------------------------------------
         total  cpu-time : 25 minutes and  2 seconds
         total wall-time :  1 minutes and 10 seconds
    ------------------------------------------------------------------------

   ****  dscf : all done  ****


    2019-04-02 19:58:20.818 

