 operating system is UNIX !

 ridft (c-9-411.gp.local) : TURBOMOLE V7.2 ( 21454 ) 4 Oct 2017 at 12:48:15
 Copyright (C) 2017 TURBOMOLE GmbH, Karlsruhe


    2018-05-18 15:36:29.394 



                                  r i d f t

                        DFT program with RI approximation 
                                for coulomb part 




                                                 
                                 References:     
                                                 
          TURBOMOLE:                             
              R. Ahlrichs, M. Baer, M. Haeser, H. Horn, and
              C. Koelmel
              Electronic structure calculations on workstation
              computers: the program system TURBOMOLE
              Chem. Phys. Lett. 162: 165 (1989)
          Density Functional:                              
              O. Treutler and R. Ahlrichs                      
              Efficient Molecular Numerical Integration Schemes
              J. Chem. Phys. 102: 346 (1995)                   
          Parallel Version:                                
              Performance of parallel TURBOMOLE for Density    
              Functional Calculations                          
              M. v. Arnim and R. Ahlrichs                      
              J. Comp. Chem. 19: 1746 (1998)                   
          RI-J Method:                                     
              Auxiliary Basis Sets to approximate Coulomb      
              Potentials                                       
              Chem. Phys. Lett. 240: 283 (1995)                
              K. Eichkorn, O. Treutler, H. Oehm, M. Haeser     
              and R. Ahlrichs                                  
              Chem. Phys. Lett. 242: 652 (1995)                
                                                           
              Auxiliary Basis Sets for Main Row Atoms and their
              Use to approximate Coulomb Potentials            
              K. Eichkorn, F. Weigend, O. Treutler and         
              R. Ahlrichs                                      
              Theo. Chem. Acc. 97: 119 (1997)                   
                                                           
              Accurate Coulomb-fitting basis sets for H to Rn 
              F. Weigend                                        
              Phys. Chem. Chem. Phys. 8: 1057 (2006)            
                                                           
          Multipole accelerated RI-J (MARI-J):             
              Fast evaluation of the Coulomb potential for     
              electron densities using multipole accelerated   
              resolution of identity approximation             
              M. Sierka, A. Hogekamp and R. Ahlrichs           
              J. Chem. Phys. 118: 9136 (2003)                  
          RI-JK Method:                                     
              A fully direct RI-HF algorithm: Implementation,
              optimised auxiliary basis sets, demonstration of
              accuracy and efficiency                         
              F. Weigend                                      
              Phys. Chem. Chem. Phys. 4: 4285 (2002)           
          Two-component HF and DFT with spin-orbit coupling:  
              Self-consistent treatment of spin-orbit         
              interactions with efficient Hartree-Fock and    
              density functional methods                      
              M. K. Armbruster, F. Weigend, C. van Wüllen and 
              W. Klopper                                      
              Phys. Chem. Chem. Phys. 10: 1748 (2008)         
          Relativistic all-electron 2c calculations           
              An efficient implementation of two-component    
              relativistic exact-decoupling methods for large 
              molecules                                       
              D. Peng, N. Middendorf, F. Weigend, M. Reiher   
              J. Chem. Phys. 138, 184105 (2013)               
                                         




              +--------------------------------------------------+
              |      general information about current run       |
              +--------------------------------------------------+

 
 PBE functional
 exchange:    LDA + PBE
 correlation: LDA (PW) + PBE
 A DFT calculation using the RI-J approximation will be carried out.
 Allocatable memory for RI due to $ricore (MB):                   500


              +--------------------------------------------------+
              | Atomic coordinate, charge and isotop information |
              +--------------------------------------------------+

                    atomic coordinates            atom    charge  isotop
         -4.53237960    0.30640185    6.65261336    n      7.000     0
         -3.37041359    2.49407696    7.18185798    c      6.000     0
         -4.59420790    4.10633735    7.48896132    h      1.000     0
         -0.75840598    2.76024061    7.35225612    c      6.000     0
          0.05766991    4.58127542    7.78919160    h      1.000     0
          0.75517280    0.64945563    6.94745050    c      6.000     0
          2.79148341    0.78246264    7.05107270    h      1.000     0
         -0.41750035   -1.63457138    6.39251432    c      6.000     0
          0.67055579   -3.32705146    6.04466310    h      1.000     0
         -3.04519152   -1.70645256    6.26883284    c      6.000     0
         -4.00678419   -3.46097517    5.83638286    h      1.000     0
 
       center of nuclear mass  :   -1.90535232    0.47756727    6.79828174
       center of nuclear charge:   -1.85299933    0.48103232    6.80085799

              +--------------------------------------------------+
              |               basis set information              |
              +--------------------------------------------------+

              we will work with the 1s 3p 5d 7f 9g ... basis set
              ...i.e. with spherical basis functions...

   type   atoms  prim   cont   basis
   ---------------------------------------------------------------------------
    n        1     77     57   def2-QZVP   [7s4p3d2f1g|15s8p3d2f1g]
    c        5     77     57   def2-QZVP   [7s4p3d2f1g|15s8p3d2f1g]
    h        5     33     30   def2-QZVP   [4s3p2d1f|7s3p2d1f]
   ---------------------------------------------------------------------------
   total:   11    627    492
   ---------------------------------------------------------------------------

   total number of primitive shells          :   71
   total number of contracted shells         :  152
   total number of cartesian basis functions :  607
   total number of SCF-basis functions       :  492


 integral neglect threshold       :  0.55E-13
 integral storage threshold THIZE :  0.10E-04
 integral storage threshold THIME :         5

 RI-J AUXILIARY BASIS SET information:

              we will work with the 1s 3p 5d 7f 9g ... basis set
              ...i.e. with spherical basis functions...

   type   atoms  prim   cont   basis
   ---------------------------------------------------------------------------
    n        1     70     49   def2-QZVP   [6s4p3d1f1g|12s5p4d2f1g]
    c        5     70     49   def2-QZVP   [6s4p3d1f1g|12s5p4d2f1g]
    h        5     16     11   def2-QZVP   [3s1p1d|5s2p1d]
   ---------------------------------------------------------------------------
   total:   11    500    349
   ---------------------------------------------------------------------------

   total number of primitive shells          :   56
   total number of contracted shells         :  115
   total number of cartesian basis functions :  426
   total number of SCF-basis functions       :  349


 symmetry group of the molecule :   c1 

 the group has the following generators :
   c1(z)

    1 symmetry operations found

 there are 1 real representations :   a   

 maximum number of shells which are related by symmetry :  1


    mo occupation :
   irrep   mo's   occupied
    a      492       21
 
 number of basis functions   :                    492
 number of occupied orbitals :                     21
 
  
           ------------------
           density functional
           ------------------
 PBE functional
 exchange:    LDA + PBE
 correlation: LDA (PW) + PBE

 iterations will be done with small grid
  
 spherical integration : Lebedev's spherical grid
 spherical gridsize    :                     5
    i.e. gridpoints    :                   590
 value for diffuse not defined
 radial integration    : Chebyshev 2nd kind (scaling 3)
 radial gridsize       :                     8
 integration cells     :                    11
 partition function    : becke
 partition sharpness   :                     3
  

 biggest AO integral is expected to be     6.129561670
  
           ------------------------
               RI-J - INFORMATION
           ------------------------
 Contributions to RI integral batches: 
  neglected integral batches:                  1196
  direct contribution:                         1080
  memory contribution:                  9352
 Memory core needed for (P|Q) and Cholesky      1 MByte
 Memory core minimum needed except of (P|Q)     2 MByte
 Total minimum memory core needed (sum)         3 MByte
  
 ****************************************
 Memory allocated for RI-J   446 MByte
 ****************************************
                                            

          ------------------------
          nuclear repulsion energy  :   206.259557451    
          ------------------------


         -----------------
         -S,T+V- integrals
         -----------------

 1e-integrals will be neglected if expon. factor < 0.550570E-14
 
   Difference densities algorithm switched on.
   The maximal number of linear combinations of
   difference densities is                    20 .

 DIIS switched on: error vector is FDS-SDF
 Max. Iterations for DIIS is     :   4
 DIIS matrix (see manual) 
    Scaling factor of diagonals  :  1.200
    threshold for scaling factor :  0.000

 scf convergence criterion : increment of total energy < .1000000D-08
                  and increment of one-electron energy < .1000000D-05

  MOs are in ASCII format !


 automatic virtual orbital shift switched on 
      shift if e(lumo)-e(homo) < 0.10000000    


 reading orbital data $scfmo  from file mos
 orbital characterization : expanded
 mo provided and orthogonalized by Cholesky decomposition

 DSCF restart information will be dumped onto file mos


 Starting SCF iterations

          Overall gridpoints after grid construction =         54826

 ITERATION  ENERGY          1e-ENERGY        2e-ENERGY     NORM[dD(SAO)]  TOL
   1  -247.08427153589    -732.97570008     279.63187109    0.000D+00 0.549D-13
                            Exc = -34.7671403018     Coul =  314.399011394    
                              N = 42.000005063    
                            current damping = 0.700
 
          max. resid. norm for Fia-block=  5.820D-01 for orbital      7a         
          max. resid. fock norm         =  5.341D+01 for orbital    451a         

 ITERATION  ENERGY          1e-ENERGY        2e-ENERGY     NORM[dD(SAO)]  TOL
   2  -247.89001812374    -739.39794535     285.24836978    0.161D+01 0.453D-13
                            Exc = -35.2723998358     Coul =  320.520769612    
                              N = 42.000004884    
                            current damping = 0.650
 
          Norm of current diis error:  2.8955    
          max. resid. norm for Fia-block=  1.371D-01 for orbital      1a         
          max. resid. fock norm         =  2.190D-01 for orbital    455a         

 ITERATION  ENERGY          1e-ENERGY        2e-ENERGY     NORM[dD(SAO)]  TOL
   3  -248.02235694270    -740.95562017     286.67370578    0.641D+00 0.309D-13
                            Exc = -35.4588114311     Coul =  322.132517206    
                              N = 42.000004355    
                            current damping = 0.550
 
          Norm of current diis error:  1.4178    
          max. resid. norm for Fia-block=  5.621D-02 for orbital     21a         
          max. resid. fock norm         =  6.072D-02 for orbital      7a         

 ITERATION  ENERGY          1e-ENERGY        2e-ENERGY     NORM[dD(SAO)]  TOL
   4  -248.06618694979    -741.60796778     287.28222338    0.269D+00 0.247D-13
                            Exc = -35.5142473776     Coul =  322.796470753    
                              N = 42.000004655    
                            current damping = 0.450
 
          Norm of current diis error: 0.56623    
          max. resid. norm for Fia-block=  2.831D-02 for orbital      7a         
          max. resid. fock norm         =  4.774D-02 for orbital    475a         

 ITERATION  ENERGY          1e-ENERGY        2e-ENERGY     NORM[dD(SAO)]  TOL
   5  -248.07148792207    -742.29679070     287.96574533    0.111D+00 0.220D-13
                            Exc = -35.5884638268     Coul =  323.554209153    
                              N = 42.000004892    
                            current damping = 0.350
 
          Norm of current diis error: 0.35046    
          max. resid. norm for Fia-block=  1.421D-02 for orbital     21a         
          max. resid. fock norm         =  1.524D-02 for orbital     21a         
          mo-orthogonalization: Cholesky decomposition

 ITERATION  ENERGY          1e-ENERGY        2e-ENERGY     NORM[dD(SAO)]  TOL
   6  -248.07452041981    -742.11087034     287.77679247    0.854D-01 0.202D-13
                            Exc = -35.5732082171     Coul =  323.350000687    
                              N = 42.000004789    
                            current damping = 0.400
 
          Norm of current diis error: 0.13661    
          max. resid. norm for Fia-block=  3.477D-03 for orbital     20a         
          max. resid. fock norm         =  8.770D-03 for orbital    489a         

 ITERATION  ENERGY          1e-ENERGY        2e-ENERGY     NORM[dD(SAO)]  TOL
   7  -248.07490027472    -742.18144663     287.84698890    0.138D-01 0.198D-13
                            Exc = -35.5793553222     Coul =  323.426344223    
                              N = 42.000004781    
                            current damping = 0.450
 
          Norm of current diis error: 0.57184E-01
          max. resid. norm for Fia-block=  1.595D-03 for orbital     13a         
          max. resid. fock norm         =  4.446D-03 for orbital    489a         

 ITERATION  ENERGY          1e-ENERGY        2e-ENERGY     NORM[dD(SAO)]  TOL
   8  -248.07496903452    -742.21637283     287.88184635    0.454D-02 0.196D-13
                            Exc = -35.5830028062     Coul =  323.464849153    
                              N = 42.000004822    
                            current damping = 0.300
 
          Norm of current diis error: 0.11934E-01
          max. resid. norm for Fia-block=  3.293D-04 for orbital     21a         
          max. resid. fock norm         =  6.041D-04 for orbital    489a         

 ITERATION  ENERGY          1e-ENERGY        2e-ENERGY     NORM[dD(SAO)]  TOL
   9  -248.07497253763    -742.20901224     287.87448226    0.609D-03 0.194D-13
                            Exc = -35.5825215399     Coul =  323.457003796    
                              N = 42.000004812    
                            current damping = 0.350
 
          Norm of current diis error: 0.18536E-02
          max. resid. norm for Fia-block=  7.727D-05 for orbital     13a         
          max. resid. fock norm         =  1.887D-04 for orbital    491a         

 ITERATION  ENERGY          1e-ENERGY        2e-ENERGY     NORM[dD(SAO)]  TOL
  10  -248.07497255145    -742.21129519     287.87676518    0.320D-03 0.192D-13
                            Exc = -35.5826551849     Coul =  323.459420368    
                              N = 42.000004814    
                            current damping = 0.400
 
          Norm of current diis error: 0.16829E-02
          max. resid. norm for Fia-block=  5.199D-05 for orbital     20a         
          max. resid. fock norm         =  9.924D-05 for orbital    488a         
          mo-orthogonalization: Cholesky decomposition

 ITERATION  ENERGY          1e-ENERGY        2e-ENERGY     NORM[dD(SAO)]  TOL
  11  -248.07497259756    -742.21113202     287.87660197    0.742D-04 0.191D-13
                            Exc = -35.5826627228     Coul =  323.459264693    
                              N = 42.000004814    
                            current damping = 0.450
 
          Norm of current diis error: 0.85145E-03
          max. resid. norm for Fia-block=  2.889D-05 for orbital     19a         
          max. resid. fock norm         =  5.104D-05 for orbital    489a         

 ITERATION  ENERGY          1e-ENERGY        2e-ENERGY     NORM[dD(SAO)]  TOL
  12  -248.07497261395    -742.21046824     287.87593817    0.102D-04 0.189D-13
                            Exc = -35.5826106332     Coul =  323.458548808    
                              N = 42.000004813    
                            current damping = 0.300
 
          Norm of current diis error: 0.27675E-03
          max. resid. norm for Fia-block=  8.342D-06 for orbital     19a         
          max. resid. fock norm         =  1.500D-05 for orbital    489a         

 ITERATION  ENERGY          1e-ENERGY        2e-ENERGY     NORM[dD(SAO)]  TOL
  13  -248.07497261558    -742.21044453     287.87591447    0.167D-04 0.187D-13
                            Exc = -35.5826155551     Coul =  323.458530022    
                              N = 42.000004813    
                            current damping = 0.150
 
          Norm of current diis error: 0.79401E-04
          max. resid. norm for Fia-block=  2.424D-06 for orbital     17a         
          max. resid. fock norm         =  3.132D-06 for orbital     15a         

 ITERATION  ENERGY          1e-ENERGY        2e-ENERGY     NORM[dD(SAO)]  TOL
  14  -248.07497261567    -742.21061554     287.87608547    0.665D-05 0.187D-13
                            Exc = -35.5826244634     Coul =  323.458709932    
                              N = 42.000004813    
                            current damping = 0.200
 
          Norm of current diis error: 0.42334E-04
          max. resid. norm for Fia-block=  9.763D-07 for orbital     20a         
          max. resid. fock norm         =  1.856D-06 for orbital    488a         

 ITERATION  ENERGY          1e-ENERGY        2e-ENERGY     NORM[dD(SAO)]  TOL
  15  -248.07497261572    -742.21056606     287.87603600    0.968D-06 0.186D-13
                            Exc = -35.5826218464     Coul =  323.458657844    
                              N = 42.000004813    
                            current damping = 0.250
 
          Norm of current diis error: 0.13607E-04
          max. resid. norm for Fia-block=  4.377D-07 for orbital     21a         
          max. resid. fock norm         =  7.680D-07 for orbital    489a         
          mo-orthogonalization: Cholesky decomposition

 ITERATION  ENERGY          1e-ENERGY        2e-ENERGY     NORM[dD(SAO)]  TOL
  16  -248.07497261571    -742.21054610     287.87601603    0.488D-06 0.186D-13
                            Exc = -35.5826202517     Coul =  323.458636285    
                              N = 42.000004813    
                            current damping = 0.100
 
          Norm of current diis error: 0.66030E-05
          max. resid. norm for Fia-block=  1.560D-07 for orbital     21a         
          max. resid. fock norm         =  2.039D-07 for orbital    472a         

 ITERATION  ENERGY          1e-ENERGY        2e-ENERGY     NORM[dD(SAO)]  TOL
  17  -248.07497261572    -742.21055496     287.87602489    0.116D-06 0.185D-13
                            Exc = -35.5826210466     Coul =  323.458645940    
                              N = 42.000004813    
                            current damping = 0.150
 
          Norm of current diis error: 0.18715E-05
          max. resid. norm for Fia-block=  7.228D-08 for orbital     20a         
          max. resid. fock norm         =  1.587D-07 for orbital    490a         

 ENERGY CONVERGED !

          Overall gridpoints after grid construction =        176148

 ITERATION  ENERGY          1e-ENERGY        2e-ENERGY     NORM[dD(SAO)]  TOL
  18  -248.07496069677    -742.21055550     287.87603735    0.179D-07 0.184D-13
                            Exc = -35.5826091434     Coul =  323.458646495    
                              N = 41.999999848    
                            current damping = 0.050
 
          Norm of current diis error: 0.17491E-05
          max. resid. norm for Fia-block=  2.924D-08 for orbital     20a         
          max. resid. fock norm         =  5.790D-08 for orbital    490a         

 End of SCF iterations

   convergence criteria satisfied after    18 iterations


                  ------------------------------------------ 
                 |  total energy      =   -248.07496069677  |
                  ------------------------------------------ 
                 :  kinetic energy    =    247.04130994100  :
                 :  potential energy  =   -495.11627063777  :
                 :  virial theorem    =      1.99583331283  :
                 :  wavefunction norm =      1.00000000000  :
                  .......................................... 


 <geterg> : there is no data group $energy 


 <skperg> : $end is missing 


 orbitals $scfmo  will be written to file mos

    irrep                 17a         18a         19a         20a         21a   
 eigenvalues H         -0.36173    -0.32363    -0.26879    -0.24640    -0.21817
            eV          -9.8432     -8.8064     -7.3142     -6.7051     -5.9368
 occupation              2.0000      2.0000      2.0000      2.0000      2.0000 

    irrep                 22a         23a         24a         25a         26a   
 eigenvalues H         -0.06883    -0.05524     0.00509     0.02957     0.03983
            eV          -1.8730     -1.5031      0.1386      0.8047      1.0839
 
 
 
 
 ==============================================================================
                           electrostatic moments
 ==============================================================================

 reference point for electrostatic moments:    0.00000   0.00000   0.00000

 
              nuc           elec       ->  total
 ------------------------------------------------------------------------------
                          charge      
 ------------------------------------------------------------------------------
          42.000000     -42.000000       0.000000
 
 ------------------------------------------------------------------------------
                       dipole moment  
 ------------------------------------------------------------------------------
   x     -77.825972      78.698501       0.872529
   y      20.203357     -20.145866       0.057491
   z     285.636036    -285.591405       0.044631
 
   | dipole moment | =     0.8756 a.u. =     2.2254 debye 
 
 ------------------------------------------------------------------------------
                     quadrupole moment
 ------------------------------------------------------------------------------
  xx     320.919578    -351.369173     -30.449595
  yy     181.236802    -203.655812     -22.419010
  zz    1951.261804   -1978.437666     -27.175861
  xy     -39.282196      39.210215      -0.071981
  xz    -522.434565     528.221912       5.787347
  yz     175.342024    -173.695322       1.646702
 
     1/3  trace=     -26.681489
     anisotropy=      12.551820
 
 ==============================================================================
 


    ------------------------------------------------------------------------
         total  cpu-time :  1 minutes and 37 seconds
         total wall-time :  6 minutes and 20 seconds
    ------------------------------------------------------------------------

   ****  ridft : all done  ****


    2018-05-18 15:42:49.310 

