
 eiger (gplogin3.local) : TURBOMOLE V7.2 ( 21285 ) 30 Jun 2017 at 11:51:10
 Copyright (C) 2017 TURBOMOLE GmbH, Karlsruhe


    2017-11-11 17:22:24.419 

                                                                                
  
 HOMO-LUMO Separation
   HOMO:   387.   387 a     -0.21320875 H =     -5.80171 eV
   LUMO:   388.   388 a     -0.13592934 H =     -3.69883 eV
   Gap :                    +0.07727941 H =     +2.10288 eV
 
Number of MOs=   4420, Electrons=    774.00, Symmetry: c1   
 
   Nr.   Orbital    Occupation       Energy
  404.   404 a                     -0.043002 H =        -1.170 eV
  403.   403 a                     -0.044502 H =        -1.211 eV
  402.   402 a                     -0.049699 H =        -1.352 eV
  401.   401 a                     -0.054717 H =        -1.489 eV
  400.   400 a                     -0.055597 H =        -1.513 eV
  399.   399 a                     -0.058928 H =        -1.604 eV
  398.   398 a                     -0.061100 H =        -1.663 eV
  397.   397 a                     -0.061697 H =        -1.679 eV
  396.   396 a                     -0.062933 H =        -1.712 eV
  395.   395 a                     -0.063423 H =        -1.726 eV
  394.   394 a                     -0.069425 H =        -1.889 eV
  393.   393 a                     -0.104670 H =        -2.848 eV
  392.   392 a                     -0.105705 H =        -2.876 eV
  391.   391 a                     -0.122254 H =        -3.327 eV
  390.   390 a                     -0.123121 H =        -3.350 eV
  389.   389 a                     -0.135621 H =        -3.690 eV
  388.   388 a                     -0.135929 H =        -3.699 eV
  387.   387 a        2.000        -0.213209 H =        -5.802 eV
  386.   386 a        2.000        -0.215055 H =        -5.852 eV
  385.   385 a        2.000        -0.217357 H =        -5.915 eV
  384.   384 a        2.000        -0.220030 H =        -5.987 eV
  383.   383 a        2.000        -0.224687 H =        -6.114 eV
  382.   382 a        2.000        -0.225914 H =        -6.147 eV
  381.   381 a        2.000        -0.228705 H =        -6.223 eV
  380.   380 a        2.000        -0.231982 H =        -6.313 eV
  379.   379 a        2.000        -0.232643 H =        -6.331 eV
  378.   378 a        2.000        -0.233293 H =        -6.348 eV
  377.   377 a        2.000        -0.234278 H =        -6.375 eV
  376.   376 a        2.000        -0.235553 H =        -6.410 eV
  375.   375 a        2.000        -0.236258 H =        -6.429 eV
  374.   374 a        2.000        -0.239436 H =        -6.515 eV
  373.   373 a        2.000        -0.242025 H =        -6.586 eV
  372.   372 a        2.000        -0.242128 H =        -6.589 eV


    ------------------------------------------------------------------------
         total  cpu-time :   9.05 seconds
         total wall-time :   9.07 seconds
    ------------------------------------------------------------------------

   ****  eiger : all done  ****


    2017-11-11 17:22:33.469 

