
   OpenMP run-time library returned nthreads = 28

 ricc2 (c-12-38) : TURBOMOLE V7.3 ( 22142 ) 4 Jul 2018 at 18:12:42
 Copyright (C) 2018 TURBOMOLE GmbH, Karlsruhe


    2019-03-13 00:17:50.205 



                              R I C C 2 - PROGRAM

                          the quantum chemistry groups
                             at the universities in
                           Karlsruhe, Bochum & Mainz
                                   Germany



   *-----------------------------------------------------------------------*
   |                     program will use 28 thread(s)                     |
   *-----------------------------------------------------------------------*


              +--------------------------------------------------+
              | Atomic coordinate, charge and isotop information |
              +--------------------------------------------------+

                    atomic coordinates            atom    charge  isotop
          5.14667671    3.54004493  -14.14371524    c      0.000     0
          5.32102049    1.40053156  -15.66646165    c      0.000     0
          4.82182134   -0.96133674  -14.61941066    c      0.000     0
          4.21504164   -1.09832343  -12.05418067    c      0.000     0
          4.09211796    0.95005586  -10.56414609    n      0.000     0
          4.51448159    3.22639040  -11.60111801    c      0.000     0
          3.54900230   -3.63323360  -10.91837712    c      0.000     0
          3.27285014   -5.51884397  -12.25164808    o      0.000     0
          4.16005418    5.53915232   -9.96045643    c      0.000     0
          4.30924051    7.68546303  -10.84363884    o      0.000     0
          3.26706030   -3.57192577   -8.36156350    n      0.000     0
          2.32117110   -5.56063226   -6.81748226    c      0.000     0
         -0.14334892   -6.47149550   -7.15713417    c      0.000     0
         -1.05164951   -8.29518068   -5.46988695    c      0.000     0
          0.38779124   -9.20167882   -3.45427491    c      0.000     0
          2.84845142   -8.26092913   -3.18798793    c      0.000     0
          3.85292432   -6.47861108   -4.85080877    c      0.000     0
         -0.68067292  -11.09730479   -1.51853186    c      0.000     0
         -3.08615532  -12.41857579   -2.53967791    c      0.000     0
         -4.08792816  -14.45672949   -0.74238536    c      0.000     0
         -2.09644377  -16.50435215   -0.27619940    c      0.000     0
          0.34406575  -15.31263664    0.72231294    c      0.000     0
          1.29420470  -13.21335614   -1.03861212    c      0.000     0
         -1.70348696  -17.49555833   -2.05947915    h      0.000     0
         -2.80715692  -17.91931234    1.05950084    h      0.000     0
         -1.29897109   -9.58109293    0.89325367    c      0.000     0
         -3.50692637   -8.12894148    1.02626808    c      0.000     0
         -4.11820523   -6.68467072    3.14402015    c      0.000     0
         -2.42396687   -6.64110092    5.19279945    c      0.000     0
         -0.18030695   -8.05783612    5.12716797    c      0.000     0
          0.32323751   -9.51093798    2.97317136    c      0.000     0
         -6.55715381   -5.21835718    3.25568895    c      0.000     0
         -2.92701554   -4.95668960    7.22369686    n      0.000     0
         -3.07391163   -5.55636064    9.72261588    c      0.000     0
         -3.04897188   -7.71284102   10.59205749    o      0.000     0
          1.69319054   -7.98224372    7.26418237    c      0.000     0
         -1.80964091   -5.49144120   -9.24177712    c      0.000     0
          6.52260753   -5.52903661   -4.54960948    c      0.000     0
         -3.21949055   -3.26708541   11.42436399    c      0.000     0
         -2.99927210   -0.97449915   10.36245380    n      0.000     0
         -2.93806737    1.05827357   11.87757776    c      0.000     0
         -3.15327443    0.88801779   14.50276166    c      0.000     0
         -3.44634316   -1.49225326   15.58515614    c      0.000     0
         -3.45950125   -3.61493530   14.02926223    c      0.000     0
         -2.49671898    3.61284852   10.68108222    c      0.000     0
         -2.04020069    5.49110586   11.97382576    o      0.000     0
          3.62625389    4.96731161   -7.51061316    n      0.000     0
          2.82974022    6.66669126   -5.58702523    c      0.000     0
          0.60013874    8.07539155   -5.86054627    c      0.000     0
         -0.22693463    9.53210180   -3.80678686    c      0.000     0
          1.06511471    9.59870987   -1.50816208    c      0.000     0
          3.28482290    8.16850710   -1.31126205    c      0.000     0
          4.21078254    6.72851608   -3.31319925    c      0.000     0
          0.13722007   11.16050956    0.76964765    c      0.000     0
         -2.09575883   12.90367228    0.04497224    c      0.000     0
         -2.92573797   14.61041078    2.23514864    c      0.000     0
         -0.74149873   16.27987161    3.14450989    c      0.000     0
          1.55690398   14.65955726    3.83573262    c      0.000     0
          2.31581892   12.92999106    1.63823009    c      0.000     0
         -0.21813956   17.60246383    1.63134839    h      0.000     0
         -1.33323428   17.42192668    4.76821141    h      0.000     0
         -0.63428758    9.27734867    2.85341072    c      0.000     0
         -3.08513598    8.28442857    2.95968562    c      0.000     0
         -3.78870475    6.46715487    4.73861106    c      0.000     0
         -1.96398152    5.58478836    6.45263702    c      0.000     0
          0.50616941    6.55121187    6.42503997    c      0.000     0
          1.10676604    8.39701674    4.63198476    c      0.000     0
         -6.44613121    5.44266824    4.81124397    c      0.000     0
         -2.62529819    3.57596021    8.11158118    n      0.000     0
          2.48929043    5.60872029    8.23089049    c      0.000     0
         -0.92431659    7.99111983   -8.25944144    c      0.000     0
          6.65304178    5.28449017   -3.06803085    c      0.000     0
         -3.08130893   -3.08174123    6.78854305    h      0.000     0
          3.63614623   -1.88472427   -7.50479014    h      0.000     0
         -4.81277132   -8.10915411   -0.55712644    h      0.000     0
          2.06901726  -10.58806673    2.95011138    h      0.000     0
         -2.96530127   -8.97377950   -5.75306626    h      0.000     0
          4.03132173   -8.91329737   -1.64044260    h      0.000     0
         -7.63610730   -5.72795034    4.94785824    h      0.000     0
         -7.71529580   -5.60981215    1.59072252    h      0.000     0
         -6.22070449   -3.17742241    3.35010158    h      0.000     0
          2.01804654   -6.03702029    7.89743390    h      0.000     0
          3.49851184   -8.79534586    6.67335957    h      0.000     0
          0.98065978   -9.03289878    8.89871062    h      0.000     0
          7.47678574   -6.51096466   -3.00233587    h      0.000     0
          6.56951089   -3.49352637   -4.15857145    h      0.000     0
          7.60546060   -5.82802852   -6.28783104    h      0.000     0
         -1.18973838   -6.22387675  -11.07543608    h      0.000     0
         -3.77341222   -6.04959888   -8.92485403    h      0.000     0
         -1.71792125   -3.42586626   -9.35485430    h      0.000     0
         -4.58022497  -11.04153291   -2.91607395    h      0.000     0
         -2.60587013  -13.28171855   -4.36548042    h      0.000     0
         -4.61778158  -13.58043018    1.06246070    h      0.000     0
         -5.80981647  -15.28712385   -1.53967149    h      0.000     0
         -0.00746646  -14.53519289    2.61132952    h      0.000     0
          1.82327498  -16.74930443    0.92816980    h      0.000     0
          1.76371684  -14.02650473   -2.88850556    h      0.000     0
          3.05559590  -12.42248484   -0.30086481    h      0.000     0
         -3.62230026   -5.52334920   14.75807299    h      0.000     0
         -3.63154268   -1.69345630   17.61946801    h      0.000     0
          4.86527940   -2.69174165  -15.71588998    h      0.000     0
          5.81197016    1.57471484  -17.65126808    h      0.000     0
         -3.11522537    1.89271706    7.31067127    h      0.000     0
          3.64649193    3.09193882   -7.05364663    h      0.000     0
         -4.51185807    8.92521939    1.63068844    h      0.000     0
          3.02384976    9.12781511    4.63546985    h      0.000     0
         -1.95793928   10.60556025   -4.04510931    h      0.000     0
          4.33652129    8.16081238    0.45158770    h      0.000     0
         -6.48951537    3.42647949    4.32985495    h      0.000     0
         -7.25485981    5.62677920    6.70787321    h      0.000     0
         -7.65532108    6.45558967    3.47666215    h      0.000     0
          2.46992158    3.54078487    8.34052076    h      0.000     0
          4.36803339    6.22213249    7.62932452    h      0.000     0
          2.13037432    6.31675561   10.14278302    h      0.000     0
          6.36322741    3.24498674   -3.26933492    h      0.000     0
          7.52478546    5.63921615   -1.22855371    h      0.000     0
          7.98293883    5.85039408   -4.55018136    h      0.000     0
         -1.14438538    6.04347453   -8.92821189    h      0.000     0
         -2.80032017    8.80195933   -7.95664760    h      0.000     0
          0.02978004    9.03909323   -9.76721034    h      0.000     0
         -3.70719337   11.80155641   -0.63909161    h      0.000     0
         -1.48024203   14.08710275   -1.54422614    h      0.000     0
         -3.59837655   13.43790672    3.80742920    h      0.000     0
         -4.52380712   15.78114838    1.62724888    h      0.000     0
          1.10816727   13.50694856    5.49975529    h      0.000     0
          3.16297180   15.86389449    4.34841710    h      0.000     0
          2.84763836   14.08063173   -0.00318411    h      0.000     0
          3.99578750   11.83227869    2.13423934    h      0.000     0
         -3.06642707    2.60778913   15.61349654    h      0.000     0
          5.45415690    5.43690089  -14.85593063    h      0.000     0
         -1.46662525   -0.06442068    2.06439102    c      6.000     0
         -1.59632650    2.16336804    0.39930505    c      6.000     0
         -0.19363950    2.30583203   -1.71543619    c      6.000     0
          1.52635518    0.22771894   -2.41334901    c      6.000     0
          1.65549540   -1.99789844   -0.74698963    c      6.000     0
          0.25705741   -2.13704040    1.36817250    c      6.000     0
         -2.79570777   -0.20060323    3.98988476    o      8.000     0
          2.85725861    0.34983714   -4.33680007    o      8.000     0
         -2.84324142    3.68069157    0.98219927    h      1.000     0
         -0.24492477    3.93635118   -2.95961561    h      1.000     0
          2.90154268   -3.51463139   -1.32887612    h      1.000     0
          0.31071257   -3.76795585    2.61066617    h      1.000     0
 
       center of nuclear mass  :    0.09697857    0.00391994   -0.05895140
       center of nuclear charge:    0.03054279    0.08060149   -0.17382833

              +--------------------------------------------------+
              |               basis set information              |
              +--------------------------------------------------+

              we will work with the 1s 3p 5d 7f 9g ... basis set
              ...i.e. with spherical basis functions...

   type   atoms  prim   cont   basis
   ---------------------------------------------------------------------------
    c       64     50     30   cc-pVTZ   [4s3p2d1f|18s5p2d1f]
    n        6     50     30   cc-pVTZ   [4s3p2d1f|18s5p2d1f]
    o        6     50     30   cc-pVTZ   [4s3p2d1f|18s5p2d1f]
    h       66     16     14   cc-pVTZ   [3s2p1d|5s2p1d]
   ---------------------------------------------------------------------------
   total:  142   4856   3204
   ---------------------------------------------------------------------------

   total number of primitive shells          :   86
   total number of contracted shells         : 1156
   total number of cartesian basis functions : 3650
   total number of SCF-basis functions       : 3204


 symmetry group of the molecule :   c1 

 the group has the following generators :
   c1(z)

    1 symmetry operations found

 there are 1 real representations :   a   


   =========================================================================


     unrestricted open shell calculation for the wavefunction models:
               MP2        - Second Order Moeller Plesset PT


     global parameters for ricc2 program:

        hard restart (reuse of interm.) :  enabled 
        soft restart (reuse of vectors) :  disabled
        threshold for vector function   :    0.100000E-05
        convergence threshold energy    :    0.100000E-06
        linear dependence threshold     :    0.100000E-13
        global print level              :      1
        maximum number of iterations    :   300
        maximum number DIIS vectors     :    10
        max. dim. of reduced space      :   100
        core memory limit (MB)          : *****


     MP2 energy only: Energy will be calculated directly from T2 amplitudes!

     Scratch Directory : 


   =========================================================================

    der. integral neglect threshold  :  0.10E-07
    integral neglect threshold       :  0.91E-12
    integral storage threshold THIZE :  0.10E-04
    integral storage threshold THIME :         5


                  +------------------------------------------+
                  |     Auxiliary basis set information      |
                  +------------------------------------------+

              we will work with the 1s 3p 5d 7f 9g ... basis set
              ...i.e. with spherical basis functions...

   type   atoms  prim   cont   basis
   ---------------------------------------------------------------------------
    c       64     81     81   cc-pVTZ   [8s6p5d3f1g|8s6p5d3f1g]
    n        6     81     81   cc-pVTZ   [8s6p5d3f1g|8s6p5d3f1g]
    o        6     81     81   cc-pVTZ   [8s6p5d3f1g|8s6p5d3f1g]
    h       66     30     30   cc-pVTZ   [4s3p2d1f|4s3p2d1f]
   ---------------------------------------------------------------------------
   total:  142   8136   8136
   ---------------------------------------------------------------------------

   total number of primitive shells          :   79
   total number of contracted shells         : 2408
   total number of cartesian basis functions : 9986
   total number of SCF-basis functions       : 8136


 maximum number of shells which are related by symmetry :  1


 The symmetry information takes   1 MB

*---------------------------------------------------------------------*
|               simplified C1 algorithm will be applied               |
*---------------------------------------------------------------------*
 +===============================================+
 |   spin-orbital based open-shell calculation   |
 |   using a UHF reference wave function         |
 +===============================================+
 spin orbital occupation:
  alpha :                    28
  beta  :                    28
  MOs are in ASCII format !


 reading orbital data $uhfmo_alpha  from file alpha
 orbital characterization : scfconv=7

 reading orbital data $uhfmo_beta  from file beta
 orbital characterization : scfconv=7



              +--------------------------------------------+
              | list of orbitals that will be kept frozen: |
              +--------------------------------------------+
              |   irrep   index      energy     occ/vir    |
              +--------------------------------------------+
              |   a         1      -20.6068     occupied   |
              |   a         2      -20.5821     occupied   |
              |   a         3      -11.3450     occupied   |
              |   a         4      -11.3321     occupied   |
              |   a         5      -11.2766     occupied   |
              |   a         6      -11.2754     occupied   |
              |   a         7      -11.2629     occupied   |
              |   a         8      -11.2627     occupied   |
              |   a         1      -20.6071     occupied   |
              |   a         2      -20.5819     occupied   |
              |   a         3      -11.3449     occupied   |
              |   a         4      -11.3321     occupied   |
              |   a         5      -11.2761     occupied   |
              |   a         6      -11.2759     occupied   |
              |   a         7      -11.2633     occupied   |
              |   a         8      -11.2622     occupied   |
              +--------------------------------------------+



   Molecular Orbital Statistic:
   ============================

   ------------------------------------------
   orbitals in total:  alpha spin   beta spin
   ------------------------------------------
    frozen occupied :      8           8
    active occupied :     20          20
    active virtual  :   3176        3176
    frozen virtual  :      0           0
    all together    :   3204        3204
   ----------------------------------------


     time in riccmos       cpu: 42.20 sec    wall: 24.30 sec    ratio:  1.7

     total memory allocated for calculation of (Q|P)**(-1/2) : 758 MiB


     calculation of (P|Q) ...
     time in lp2sym        cpu:  1 min 28 s  wall:  0 min  3 s  ratio: 26.2


     calculation of the Cholesky decomposition of (P|Q)**(-1) ...
     time in invmetri      cpu: 19 min 38 s  wall:  0 min 48 s  ratio: 24.6

   threshold for RMS(d[D]) in SCF was     :  0.10E-06
   integral neglect threshold             :  0.91E-12
   derivative integral neglect threshold  :  0.10E-07


   =========================================================================

     Energy of reference wave function is  -379.3784186261000
     Maximum orbital residual is           0.1868536657598E-04


     Number of symmetry-nonredundant auxiliary basis functions:     8136

     Block lengths for integral files:
        frozen occupied (BOI):        1 MiB
        active occupied (BJI):        2 MiB
        active virtual  (BAI):      198 MiB
        frozen virtual  (BGI):        0 MiB
               general  (BTI):      199 MiB

   =========================================================================



  ----------------------------------------------------------------------------
  hard_restart flag is disabled because the check sum for the
  B(Q|ia)  "$chkbqia" differs from the reference value:
  reference value:     72.9741346344342    
  computed value :     55.6527975178762    
  relative error :    0.237362693005264    
  tolerance      :    0.100000000000000E-11
  the calculation will proceed...
  ----------------------------------------------------------------------------


   **************************************************************************
   *                                                                        *
   *          OPTIMIZATION OF THE GROUND STATE CLUSTER AMPLITUDES           *
   *                                                                        *
   **************************************************************************


   Iter.   MP2 energy       Norm(Omega)   Norm(t1)  Norm(t2)     cpu    wall
   ...........................................................................
    1   -380.6761798067     ------          0.00000   0.74551  494.36   18.97
   ...........................................................................


     time in total         cpu:  8 h 14 min  wall:  0 h 18 min  ratio: 26.1


     **********************************************************************
     *                                                                    *
     *   UHF  energy                             :   -379.3784186261      *
     *   MP2 correlation energy (doubles)        :     -1.2977611806      *
     *                                                                    *
     *   Final MP2 energy                        :   -380.6761798067      *
     *                                                                    *
     *    E(OS)  =     -0.9622205981      E(SS)  =     -0.3355405825      *
     *                                                                    *
     *   SCS-MP2 energy                          :   -380.6449302046      *
     *   (computed with  C(OS) =   1.2000  and  C(SS) =   0.3333)         *
     *                                                                    *
     *   SOS-MP2 energy                          :   -380.6293054036      *
     *   (computed with  C(OS) =   1.3000)                                *
     *                                                                    *
     *   Norm of MP1 T2 amplitudes               :      0.7455117572      *
     *                                                                    *
     **********************************************************************



    ------------------------------------------------------------------------
         total  cpu-time :  9 hours 48 minutes and 32 seconds
         total wall-time : 31 minutes and  2 seconds
    ------------------------------------------------------------------------

   ****  ricc2 : all done  ****


    2019-03-13 00:48:51.813 

