Using OpenMPI from /sopt/mpi/openmpi-1.8.6/intel_15.0.3/bin/mpiexec
STARTING ridft ON 8 PROCESSORS!
RUNNING PROGRAM /modfac/apps/TURBOMOLE/7.0_intel/bin/em64t-unknown-linux-gnu_mpi/ridft_mpi.
PLEASE WAIT UNTIL ridft HAS FINISHED.
Look for the output in slave1.output.
  this is node-proc. number 1 running on node c-9-374.local
  the total number of node-proc. spawned is            8
  parallel platform: MPP, or cluster with fast interconnect

 ridft (c-9-374.local) : TURBOMOLE V7.0( ) 6 Jul 2015 at 19:34:44
 Copyright (C) 2015 TURBOMOLE GmbH, Karlsruhe


    2015-10-19 03:23:21.579 



                                  r i d f t

                        DFT program with RI approximation 
                                for coulomb part 




                                                 
                                 References:     
                                                 
          TURBOMOLE:                             
              R. Ahlrichs, M. Baer, M. Haeser, H. Horn, and
              C. Koelmel
              Electronic structure calculations on workstation
              computers: the program system TURBOMOLE
              Chem. Phys. Lett. 162: 165 (1989)
          Density Functional:                              
              O. Treutler and R. Ahlrichs                      
              Efficient Molecular Numerical Integration Schemes
              J. Chem. Phys. 102: 346 (1995)                   
          Parallel Version:                                
              Performance of parallel TURBOMOLE for Density    
              Functional Calculations                          
              M. v. Arnim and R. Ahlrichs                      
              J. Comp. Chem. 19: 1746 (1998)                   
          RI-J Method:                                     
              Auxiliary Basis Sets to approximate Coulomb      
              Potentials                                       
              Chem. Phys. Lett. 240: 283 (1995)                
              K. Eichkorn, O. Treutler, H. Oehm, M. Haeser     
              and R. Ahlrichs                                  
              Chem. Phys. Lett. 242: 652 (1995)                
                                                           
              Auxiliary Basis Sets for Main Row Atoms and their
              Use to approximate Coulomb Potentials            
              K. Eichkorn, F. Weigend, O. Treutler and         
              R. Ahlrichs                                      
              Theo. Chem. Acc. 97: 119 (1997)                   
                                                           
              Accurate Coulomb-fitting basis sets for H to Rn 
              F. Weigend                                        
              Phys. Chem. Chem. Phys. 8: 1057 (2006)            
                                                           
          Multipole accelerated RI-J (MARI-J):             
              Fast evaluation of the Coulomb potential for     
              electron densities using multipole accelerated   
              resolution of identity approximation             
              M. Sierka, A. Hogekamp and R. Ahlrichs           
              J. Chem. Phys. 118: 9136 (2003)                  
          RI-JK Method:                                     
              A fully direct RI-HF algorithm: Implementation,
              optimised auxiliary basis sets, demonstration of
              accuracy and efficiency                         
              F. Weigend                                      
              Phys. Chem. Chem. Phys. 4: 4285 (2002)           
          Two-component HF and DFT with spin-orbit coupling:  
              Self-consistent treatment of spin-orbit         
              interactions with efficient Hartree-Fock and    
              density functional methods                      
              M. K. Armbruster, F. Weigend, C. van Wüllen and 
              W. Klopper                                      
              Phys. Chem. Chem. Phys. 10: 1748 (2008)         
          Relativistic all-electron 2c calculations           
              An efficient implementation of two-component    
              relativistic exact-decoupling methods for large 
              molecules                                       
              D. Peng, N. Middendorf, F. Weigend, M. Reiher   
              J. Chem. Phys. 138, 184105 (2013)               
                                         


 


              +--------------------------------------------------+
              |      general information about current run       |
              +--------------------------------------------------+

 

 SCF run will be profiled !


 DENSITY CONVERGENCE CHECK SWITCHED ON !
 SCF CONVERGENCE IF RMS(delta[D]) <     0.1000000000E-06

 PBE functional
 exchange:    LDA + PBE
 correlation: LDA (PW) + PBE
 A DFT calculation using the RI-J approximation will be carried out.
 Allocatable memory for RI due to $ricore (MB):        5000


              +--------------------------------------------------+
              | Atomic coordinate, charge and isotop information |
              +--------------------------------------------------+

                    atomic coordinates            atom    charge  isotop
         -1.45507023   -0.18116804   -9.52270793    c      6.000     0
          1.50694321   -0.19354575   -9.48385516    c      6.000     0
          2.12405217    2.03944913   -8.00569248    n      7.000     0
          0.01645951    3.36017873   -7.21206420    c      6.000     0
         -2.08591750    2.09778498   -8.13413717    n      7.000     0
         -2.11122093   -2.53465187   -8.30614004    n      7.000     0
         -0.00725655   -4.02169626   -7.73304279    c      6.000     0
          2.12063177   -2.59098460   -8.33444814    n      7.000     0
         -0.03645282   -6.16685667   -6.93790273    o      8.000     0
         -0.00895730    5.31224693   -5.97635338    o      8.000     0
          4.64216894   -3.65890664   -8.16070672    c      6.000     0
          4.65250574    3.05453442   -7.73168219    c      6.000     0
         -9.05653139   -0.26688602   -3.51065762    c      6.000     0
         -7.56616108   -0.22542543   -6.07306957    c      6.000     0
         -6.12363864    2.11449016   -5.91062871    n      7.000     0
         -9.37086843    3.09775246    0.00000000    c      6.000     0
         -8.30425031    2.09292838   -2.31070042    n      7.000     0
         -8.17098683   -2.54512095   -2.30450212    n      7.000     0
         -6.52184173   -3.94132621   -3.81932549    c      6.000     0
         -6.11014599   -2.52684730   -6.00348985    n      7.000     0
         -5.67367595   -6.01403452   -3.35445286    o      8.000     0
         -5.63975536    5.48396634   -3.13932644    o      8.000     0
         -4.64532478   -3.53892792   -8.09163723    c      6.000     0
         -4.58761254    3.15924415   -7.92668303    c      6.000     0
          9.10583434   -0.57311614    3.51303868    c      6.000     0
          7.58458591   -0.42533956    6.04999601    c      6.000     0
          6.13149990    1.88976393    5.75576565    n      7.000     0
          6.82701360    3.27045453    3.63360320    c      6.000     0
          8.57312055    1.83190051    2.31408303    n      7.000     0
          8.06121263   -2.79176801    2.29739675    n      7.000     0
          6.45233760   -4.16066672    3.87110398    c      6.000     0
          6.15124754   -2.74246505    6.07186014    n      7.000     0
          5.54266123   -6.21721787    3.44175821    o      8.000     0
          6.07316405    5.37345516    3.07906307    o      8.000     0
          4.64216894   -3.65890664    8.16070672    c      6.000     0
          4.65250574    3.05453442    7.73168219    c      6.000     0
          7.58458591   -0.42533956   -6.04999601    c      6.000     0
          9.10583434   -0.57311614   -3.51303868    c      6.000     0
          8.57312055    1.83190051   -2.31408303    n      7.000     0
          6.82701360    3.27045453   -3.63360320    c      6.000     0
          6.13149990    1.88976393   -5.75576565    n      7.000     0
          6.15124754   -2.74246505   -6.07186014    n      7.000     0
          6.45233760   -4.16066672   -3.87110398    c      6.000     0
          8.06121263   -2.79176801   -2.29739675    n      7.000     0
          5.54266123   -6.21721787   -3.44175821    o      8.000     0
          6.07316405    5.37345516   -3.07906307    o      8.000     0
          9.04266080   -3.90976778    0.00000000    c      6.000     0
          9.71687729    2.74495949    0.00000000    c      6.000     0
         -7.56616108   -0.22542543    6.07306957    c      6.000     0
         -9.05653139   -0.26688602    3.51065762    c      6.000     0
         -8.30425031    2.09292838    2.31070042    n      7.000     0
         -6.57074784    3.43610792    3.71760153    c      6.000     0
         -6.12363864    2.11449016    5.91062871    n      7.000     0
         -6.11014599   -2.52684730    6.00348985    n      7.000     0
         -6.52184173   -3.94132621    3.81932549    c      6.000     0
         -8.17098683   -2.54512095    2.30450212    n      7.000     0
         -5.67367595   -6.01403452    3.35445286    o      8.000     0
         -5.63975536    5.48396634    3.13932644    o      8.000     0
         -9.20056631   -3.60705255    0.00000000    c      6.000     0
         -6.57074784    3.43610792   -3.71760153    c      6.000     0
          1.50694321   -0.19354575    9.48385516    c      6.000     0
         -1.45507023   -0.18116804    9.52270793    c      6.000     0
         -2.08591750    2.09778498    8.13413717    n      7.000     0
          0.01645951    3.36017873    7.21206420    c      6.000     0
          2.12405217    2.03944913    8.00569248    n      7.000     0
          2.12063177   -2.59098460    8.33444814    n      7.000     0
         -0.00725655   -4.02169626    7.73304279    c      6.000     0
         -2.11122093   -2.53465187    8.30614004    n      7.000     0
         -0.03645282   -6.16685667    6.93790273    o      8.000     0
         -0.00895730    5.31224693    5.97635338    o      8.000     0
         -4.64532478   -3.53892792    8.09163723    c      6.000     0
         -4.58761254    3.15924415    7.92668303    c      6.000     0
         -2.26134078   -0.09000766  -11.43386356    h      1.000     0
          2.36251671   -0.04667624  -11.36963176    h      1.000     0
          5.65623377   -3.29653275   -9.93270291    h      1.000     0
          4.39138338   -5.68873706   -7.86687320    h      1.000     0
          5.63960418    2.85915564   -9.54699091    h      1.000     0
          4.45818520    5.04774196   -7.22533007    h      1.000     0
        -11.11797694   -0.30458606   -3.74736472    h      1.000     0
         -8.79102487   -0.17697285   -7.74736692    h      1.000     0
         -4.44148002   -5.56620722   -7.74468351    h      1.000     0
         -5.67764437   -3.20047797   -9.85896580    h      1.000     0
          5.63960418    2.85915564    9.54699091    h      1.000     0
         -5.58166518    2.89152665   -9.72543775    h      1.000     0
         11.15295577   -0.78688196    3.78716235    h      1.000     0
          8.79329254   -0.30078771    7.73402545    h      1.000     0
          5.65623377   -3.29653275    9.93270291    h      1.000     0
          4.39138338   -5.68873706    7.86687320    h      1.000     0
         -4.36645789    5.17032849   -7.51661246    h      1.000     0
          4.45818520    5.04774196    7.22533007    h      1.000     0
          8.79329254   -0.30078771   -7.73402545    h      1.000     0
         11.15295577   -0.78688196   -3.78716235    h      1.000     0
          8.44329636   -5.88825435    0.00000000    h      1.000     0
         11.11502896   -3.77504920    0.00000000    h      1.000     0
          9.49052589    4.79718317    0.00000000    h      1.000     0
         11.72369085    2.23367519    0.00000000    h      1.000     0
         -8.79102487   -0.17697285    7.74736692    h      1.000     0
        -11.11797694   -0.30458606    3.74736472    h      1.000     0
        -11.26238981   -3.37189503    0.00000000    h      1.000     0
         -8.69678423   -5.61186301    0.00000000    h      1.000     0
        -11.41194273    2.74206821    0.00000000    h      1.000     0
         -8.99305549    5.12697818    0.00000000    h      1.000     0
          2.36251671   -0.04667624   11.36963176    h      1.000     0
         -2.26134078   -0.09000766   11.43386356    h      1.000     0
         -4.44148002   -5.56620722    7.74468351    h      1.000     0
         -5.67764437   -3.20047797    9.85896580    h      1.000     0
         -4.36645789    5.17032849    7.51661246    h      1.000     0
         -5.58166518    2.89152665    9.72543775    h      1.000     0
 
       center of nuclear mass  :    0.02764207   -0.32379759    0.00000000
       center of nuclear charge:    0.02749610   -0.32290736    0.00000000

              +--------------------------------------------------+
              |               basis set information              |
              +--------------------------------------------------+

              we will work with the 1s 3p 5d 7f 9g ... basis set
              ...i.e. with spherical basis functions...

   type   atoms  prim   cont   basis
   ---------------------------------------------------------------------------
    c       36     77     57   def2-QZVP   [7s4p3d2f1g|15s8p3d2f1g]
    n       24     77     57   def2-QZVP   [7s4p3d2f1g|15s8p3d2f1g]
    o       12     77     57   def2-QZVP   [7s4p3d2f1g|15s8p3d2f1g]
    h       36     33     30   def2-QZVP   [4s3p2d1f|7s3p2d1f]
   ---------------------------------------------------------------------------
   total:  108   6732   5184
   ---------------------------------------------------------------------------

   total number of primitive shells          :  100
   total number of contracted shells         : 1584
   total number of cartesian basis functions : 6444
   total number of SCF-basis functions       : 5184


 integral neglect threshold       :  0.52E-14
 integral storage threshold THIZE :  0.10E-04
 integral storage threshold THIME :         5

 RI-J AUXILIARY BASIS SET information:

              we will work with the 1s 3p 5d 7f 9g ... basis set
              ...i.e. with spherical basis functions...

   type   atoms  prim   cont   basis
   ---------------------------------------------------------------------------
    c       36     70     49   def2-QZVP   [6s4p3d1f1g|12s5p4d2f1g]
    n       24     70     49   def2-QZVP   [6s4p3d1f1g|12s5p4d2f1g]
    o       12     70     49   def2-QZVP   [6s4p3d1f1g|12s5p4d2f1g]
    h       36     16     11   def2-QZVP   [3s1p1d|5s2p1d]
   ---------------------------------------------------------------------------
   total:  108   5616   3924
   ---------------------------------------------------------------------------

   total number of primitive shells          :   80
   total number of contracted shells         : 1260
   total number of cartesian basis functions : 4824
   total number of SCF-basis functions       : 3924


 symmetry group of the molecule :   c1 

 the group has the following generators :
   c1(z)

    1 symmetry operations found

 there are 1 real representations :   a   

 maximum number of shells which are related by symmetry :  1


    mo occupation :
   irrep   mo's   occupied
    a     5184      258
 
 number of basis functions   :         5184
 number of occupied orbitals :          258
 
  
           ------------------
           density functional
           ------------------
 PBE functional
 exchange:    LDA + PBE
 correlation: LDA (PW) + PBE
 grinp -> nfun, dfgga, dfhybrid 
           6 T F
 iterations will be done with small grid
  
 spherical integration : Lebedev's spherical grid
 spherical gridsize    :           5
    i.e. gridpoints    :         590
 value for diffuse not defined
 radial integration    : Chebyshev 2nd kind (scaling 3)
 radial gridsize       :           8
 integration cells     :         108
 partition function    : becke
 partition sharpness   :           3
  

 <rddim> : input of entry tasksize
           from data group '$pardft' failed !

               Default values taken

 <rddim> : input of entry memdiv
           from data group '$pardft' failed !

               Default values taken
  RIDFT: memory allocation for DFT gridpoints
  MEMORY is divided by 1 as DEFAULT
 Each node can hold at most  the            1 -th part
 of the gridpoints    

 biggest AO integral is expected to be     6.990327543
  
           ------------------------
               RI-J - INFORMATION
           ------------------------
 
 
 **************************************************
 *      MEMORY ALLOCATION FOR PARALLEL RI-DFT     *
 **************************************************
 
 
MEMORY FOR (MU NU/ ALPHA), SEQUENTIAL RUN               4870 MByte
 
            DIFFERENCE IN MEMORY NEED:       DIAG./SLAVE  
 
      TOTAL DIFFERENCE :                   1222 MByte
 
      difference in xcore:                  131 MByte
      difference in fatmat:                 364 MByte
      getcor calls skipped by slaves:       728 MByte
 
 
           Integral memory available for diagonal.      4870 MByte
 
           Integral memory available for slave             0 MByte
 
         MEMORY FOR (MU NU/ ALPHA) ON DIAGONALIZER      4870 MByte
 
         MEMORY FOR (MU NU/ ALPHA) ON ONE SLAVE            0 MByte
 
         TOTAL MEMORY FOR (MU NU/ ALPHA),ALL NODES      4870 MByte
 
 Contributions to RI integral batches: 
  neglected integral batches:      838339
  direct contribution:             381445
  memory contribution:       35536
 Memory core needed for (P|Q) and Cholesky    118 MByte
 Memory core minimum needed except of (P|Q)    14 MByte
 Total minimum memory core needed (sum)       132 MByte
     number of direct tasks:         160
  
 ****************************************
 Memory allocated for RI-J  5001 MByte
 ****************************************
                                            

          ------------------------
          nuclear repulsion energy  :   13462.6561478    
          ------------------------

 
          -----------------
          -S integrals
          -----------------

 1e-integrals will be neglected if expon. factor < 0.518616E-15
 
          -----------------
          -T+V integrals
          -----------------

 1e-integrals will be neglected if expon. factor < 0.518616E-15
 Difference densities >>NOT<< switched on in parallel ridft!

 automatic virtual orbital shift switched on 
      shift if e(lumo)-e(homo) < 0.10000000    


 DIIS switched on: error vector is FDS-SDF
 Max. Iterations for DIIS is     :   4
 DIIS matrix (see manual) 
    Scaling factor of diagonals  :  1.200
    threshold for scaling factor :  0.000

 scf convergence criterion : increment of total energy < .1000000D-08
                  and increment of one-electron energy < .1000000D-05


 <geterg> : there is no data group $energy 

  MOs are in ASCII format !


 reading orbital data $scfmo  from file mos . 

 orbital characterization : expanded
 
 mo provided and orthogonalized by Cholesky decomposition

 DSCF restart information will be dumped onto file mos


 Starting SCF iterations


 ITERATION  ENERGY          1e-ENERGY        2e-ENERGY     RMS[dD(SAO)]   TOL
   1  -3592.8510174357    -31666.452970     14610.945805    0.000D+00 0.517D-14
                            Exc = -472.474158110     Coul =  15083.4199632    
                              N = 516.00099731    
                            current damping = 0.700
 
          max. resid. norm for Fia-block=  7.879D-01 for orbital     84a         
          max. resid. fock norm         =  5.435D+01 for orbital   4410a         

 ITERATION  ENERGY          1e-ENERGY        2e-ENERGY     RMS[dD(SAO)]   TOL
   2  -3605.7253430823    -31738.505077     14670.123586    0.373D-02 0.517D-14
                            Exc = -472.793529267     Coul =  15142.9171156    
                              N = 516.00083985    
                            current damping = 0.650
 
          Norm of current diis error:  10.014    
          max. resid. norm for Fia-block=  1.678D-01 for orbital      1a         
          max. resid. fock norm         =  3.590D-01 for orbital   4941a         

 ITERATION  ENERGY          1e-ENERGY        2e-ENERGY     RMS[dD(SAO)]   TOL
   3  -3607.4275937537    -31759.273398     14689.189657    0.172D-02 0.517D-14
                            Exc = -474.938324442     Coul =  15164.1279812    
                              N = 516.00078394    
                            current damping = 0.550
 
          Norm of current diis error:  4.8587    
          max. resid. norm for Fia-block=  6.698D-02 for orbital      3a         
          max. resid. fock norm         =  7.173D-02 for orbital    638a         

 ITERATION  ENERGY          1e-ENERGY        2e-ENERGY     RMS[dD(SAO)]   TOL
   4  -3607.9457367494    -31769.240631     14698.638747    0.816D-03 0.517D-14
                            Exc = -474.295587291     Coul =  15172.9343343    
                              N = 516.00075385    
                            current damping = 0.450
 
          Norm of current diis error:  2.3181    
          max. resid. norm for Fia-block=  3.714D-02 for orbital     88a         
          max. resid. fock norm         =  8.814D-02 for orbital   4931a         

 ITERATION  ENERGY          1e-ENERGY        2e-ENERGY     RMS[dD(SAO)]   TOL
   5  -3608.0177973087    -31764.988326     14694.314381    0.428D-03 0.517D-14
                            Exc = -475.018251790     Coul =  15169.3326324    
                              N = 516.00075107    
                            current damping = 0.500
 
          Norm of current diis error:  1.6949    
          max. resid. norm for Fia-block=  1.566D-02 for orbital    245a         
          max. resid. fock norm         =  1.877D-02 for orbital    245a         
          mo-orthogonalization: Cholesky decomposition

 ITERATION  ENERGY          1e-ENERGY        2e-ENERGY     RMS[dD(SAO)]   TOL
   6  -3608.0929464498    -31771.903642     14701.154547    0.179D-03 0.517D-14
                            Exc = -475.040135669     Coul =  15176.1946831    
                              N = 516.00075421    
                            current damping = 0.550
 
          Norm of current diis error: 0.33409    
          max. resid. norm for Fia-block=  4.226D-03 for orbital    191a         
          max. resid. fock norm         =  5.800D-03 for orbital    210a         

 ITERATION  ENERGY          1e-ENERGY        2e-ENERGY     RMS[dD(SAO)]   TOL
   7  -3608.0954319319    -31770.457566     14699.705986    0.762D-04 0.517D-14
                            Exc = -474.900300593     Coul =  15174.6062866    
                              N = 516.00074925    
                            current damping = 0.600
 
          Norm of current diis error: 0.14685    
          max. resid. norm for Fia-block=  1.463D-03 for orbital     82a         
          max. resid. fock norm         =  2.784D-03 for orbital   5036a         

 ITERATION  ENERGY          1e-ENERGY        2e-ENERGY     RMS[dD(SAO)]   TOL
   8  -3608.0958716405    -31770.728320     14699.976301    0.207D-04 0.517D-14
                            Exc = -474.922285703     Coul =  15174.8985863    
                              N = 516.00075016    
                            current damping = 0.650
 
          Norm of current diis error: 0.47061E-01
          max. resid. norm for Fia-block=  1.340D-03 for orbital    246a         
          max. resid. fock norm         =  3.167D-03 for orbital   5178a         

 ITERATION  ENERGY          1e-ENERGY        2e-ENERGY     RMS[dD(SAO)]   TOL
   9  -3608.0958673944    -31770.950465     14700.198450    0.751D-05 0.517D-14
                            Exc = -474.947576045     Coul =  15175.1460257    
                              N = 516.00075050    
                            current damping = 0.700
 
          Norm of current diis error: 0.48297E-01
          max. resid. norm for Fia-block=  4.919D-04 for orbital    246a         
          max. resid. fock norm         =  1.378D-03 for orbital   5178a         

 ITERATION  ENERGY          1e-ENERGY        2e-ENERGY     RMS[dD(SAO)]   TOL
  10  -3608.0959246838    -31770.998227     14700.246154    0.363D-05 0.517D-14
                            Exc = -474.948557890     Coul =  15175.1947121    
                              N = 516.00075058    
                            current damping = 0.550
 
          Norm of current diis error: 0.17765E-01
          max. resid. norm for Fia-block=  2.096D-04 for orbital    246a         
          max. resid. fock norm         =  5.722D-04 for orbital   5175a         
          mo-orthogonalization: Cholesky decomposition

 ITERATION  ENERGY          1e-ENERGY        2e-ENERGY     RMS[dD(SAO)]   TOL
  11  -3608.0959329731    -31770.916267     14700.164186    0.233D-05 0.517D-14
                            Exc = -474.942598526     Coul =  15175.1067847    
                              N = 516.00075050    
                            current damping = 0.600
 
          Norm of current diis error: 0.46215E-02
          max. resid. norm for Fia-block=  9.854D-05 for orbital    246a         
          max. resid. fock norm         =  1.258D-04 for orbital    240a         

 ITERATION  ENERGY          1e-ENERGY        2e-ENERGY     RMS[dD(SAO)]   TOL
  12  -3608.0959329653    -31770.945508     14700.193428    0.632D-06 0.517D-14
                            Exc = -474.941950483     Coul =  15175.1353782    
                              N = 516.00075053    
                            current damping = 0.650
 
          Norm of current diis error: 0.46218E-02
          max. resid. norm for Fia-block=  3.780D-05 for orbital    228a         
          max. resid. fock norm         =  7.084D-05 for orbital   4921a         

 ITERATION  ENERGY          1e-ENERGY        2e-ENERGY     RMS[dD(SAO)]   TOL
  13  -3608.0959334237    -31770.937776     14700.185695    0.243D-06 0.517D-14
                            Exc = -474.942471258     Coul =  15175.1281663    
                              N = 516.00075053    
                            current damping = 0.700
 
          Norm of current diis error: 0.18364E-02
          max. resid. norm for Fia-block=  1.337D-05 for orbital    160a         
          max. resid. fock norm         =  2.482D-05 for orbital   4913a         

 ITERATION  ENERGY          1e-ENERGY        2e-ENERGY     RMS[dD(SAO)]   TOL
  14  -3608.0959334919    -31770.931396     14700.179315    0.145D-06 0.517D-14
                            Exc = -474.942297695     Coul =  15175.1216126    
                              N = 516.00075052    
                            current damping = 0.550
 
          Norm of current diis error: 0.54502E-03
          max. resid. norm for Fia-block=  6.222D-06 for orbital    228a         
          max. resid. fock norm         =  1.174D-05 for orbital   4921a         

 DENSITY CONVERGED !


 ITERATION  ENERGY          1e-ENERGY        2e-ENERGY     RMS[dD(SAO)]   TOL
  15  -3608.0959334988    -31770.930087     14700.178006    0.484D-07 0.517D-14
                            Exc = -474.942394844     Coul =  15175.1204008    
                              N = 516.00075052    
                            current damping = 0.400
 
          Norm of current diis error: 0.18950E-03
          max. resid. norm for Fia-block=  3.181D-06 for orbital    229a         
          max. resid. fock norm         =  6.455D-06 for orbital   5167a         
          mo-orthogonalization: Cholesky decomposition

 DENSITY CONVERGED !


 ITERATION  ENERGY          1e-ENERGY        2e-ENERGY     RMS[dD(SAO)]   TOL
  16  -3608.0959334997    -31770.929991     14700.177910    0.259D-07 0.517D-14
                            Exc = -474.942359490     Coul =  15175.1202695    
                              N = 516.00075052    
                            current damping = 0.250
 
          Norm of current diis error: 0.12105E-03
          max. resid. norm for Fia-block=  1.684D-06 for orbital    229a         
          max. resid. fock norm         =  4.983D-06 for orbital   5183a         

 DENSITY CONVERGED !


 ITERATION  ENERGY          1e-ENERGY        2e-ENERGY     RMS[dD(SAO)]   TOL
  17  -3608.0959334994    -31770.929771     14700.177690    0.115D-07 0.517D-14
                            Exc = -474.942353461     Coul =  15175.1200431    
                              N = 516.00075052    
                            current damping = 0.100
 
          Norm of current diis error: 0.67848E-04
          max. resid. norm for Fia-block=  5.127D-07 for orbital    246a         
          max. resid. fock norm         =  1.467D-06 for orbital   5183a         

 DENSITY CONVERGED !


 ITERATION  ENERGY          1e-ENERGY        2e-ENERGY     RMS[dD(SAO)]   TOL
  18  -3608.0959334996    -31770.929918     14700.177836    0.399D-08 0.517D-14
                            Exc = -474.942363615     Coul =  15175.1202000    
                              N = 516.00075052    
                            current damping = 0.150
 
          Norm of current diis error: 0.21251E-04
          max. resid. norm for Fia-block=  2.278D-07 for orbital    253a         
          max. resid. fock norm         =  6.674D-07 for orbital   5167a         

 ENERGY & DENSITY CONVERGED !


 ITERATION  ENERGY          1e-ENERGY        2e-ENERGY     RMS[dD(SAO)]   TOL
  19  -3608.0958660268    -31770.929905     14700.177891    0.191D-08 0.517D-14
                            Exc = -474.942298548     Coul =  15175.1201899    
                              N = 516.00018439    
                            current damping = 0.200
 
          Norm of current diis error: 0.16270E-04
          max. resid. norm for Fia-block=  1.361D-07 for orbital    233a         
          max. resid. fock norm         =  3.059D-07 for orbital   5178a         

 End of SCF iterations

   convergence criteria satisfied after   19 iterations


                  ------------------------------------------ 
                 |  total energy      =  -3608.09586602685  |
                  ------------------------------------------ 
                 :  kinetic energy    =   3593.37307873852  :
                 :  potential energy  =  -7201.46894476537  :
                 :  virial theorem    =      1.99591951327  :
                 :  wavefunction norm =      1.00000000000  :
                  .......................................... 


 <geterg> : there is no data group $energy 


 <skperg> : $end is missing 


 orbitals $scfmo  will be written to file mos

    irrep                254a        255a        256a        257a        258a   
 eigenvalues H         -0.21167    -0.20881    -0.20671    -0.20623    -0.19790
            eV          -5.7599     -5.6820     -5.6249     -5.6118     -5.3850
 occupation              2.0000      2.0000      2.0000      2.0000      2.0000 

    irrep                259a        260a        261a        262a        263a   
 eigenvalues H         -0.03277    -0.02888    -0.02849    -0.02033    -0.02011
            eV          -0.8917     -0.7859     -0.7752     -0.5532     -0.5471
 
 
 ! grave: sending quit signal to master process
 
 
 
 
 ==============================================================================
                           electrostatic moments
 ==============================================================================

 reference point for electrostatic moments:    0.00000   0.00000   0.00000

 
              nuc           elec       ->  total
 ------------------------------------------------------------------------------
                          charge      
 ------------------------------------------------------------------------------
         516.000000    -516.000000      -0.000000
 
 ------------------------------------------------------------------------------
                       dipole moment  
 ------------------------------------------------------------------------------
   x      14.187988     -14.127504       0.060484
   y    -166.620196     166.550282      -0.069913
   z      -0.000000      -0.000000      -0.000000
 
   | dipole moment | =     0.0924 a.u. =     0.2350 debye 
 
 ------------------------------------------------------------------------------
                     quadrupole moment
 ------------------------------------------------------------------------------
  xx   18988.853285  -19205.332893    -216.479608
  yy    6398.578484   -6782.434552    -383.856067
  zz   18517.304462  -18733.533775    -216.229313
  xy    -194.324126     192.218585      -2.105541
  xz       0.000000       0.000000       0.000000
  yz       0.000000      -0.000000      -0.000000
 
     1/3  trace=    -272.188330
     anisotropy=     167.541443
 
 ==============================================================================
 

    ridft profiling
  --------------------------------------------------------------------
             module   cpu total (s)       %  wall total (s)       %

               RIDFT          9878.6  100.00          9897.4  100.00
         Ridft_b_scf          4615.5   46.72          4616.6   46.64
        b_scf_prelim             0.0    0.00             0.0    0.00
        b_scf_molinp             0.0    0.00             0.0    0.00
         b_scf_init0             0.0    0.00             0.0    0.00
        b_scf_auxbas             0.0    0.00             0.0    0.00
      b_scf_symmetry             0.0    0.00             0.0    0.00
         b_scf_cosmo             0.0    0.00             0.0    0.00
        b_scf_params          1356.9   13.74          1359.3   13.73
          b_scf_ri-j          3141.3   31.80          3140.1   31.73
    b_scf_ri-j_auxpq          3141.2   31.80          3139.9   31.72
     ri-j_auxpq_chol             4.0    0.04             4.0    0.04
         b_scf_1elec             8.3    0.08             8.3    0.08
       b_scf_moinput           108.9    1.10           108.9    1.10
     moinput_orthmos           108.0    1.09           108.0    1.09
    b_scf_dft-dstmax             0.0    0.00             0.0    0.00
           Ridft_scf          5260.4   53.25          5278.0   53.33
          Scf_b_loop             0.0    0.00             0.0    0.00
                noga             0.0    0.00             0.0    0.00
            Scf_loop          5250.8   53.15          5267.8   53.22
     scf_loop_mkdmat            43.7    0.44            46.0    0.46
       scf_loop_ri-j          1477.1   14.95          1476.6   14.92
      parlp1.bc.dens             3.2    0.03             3.2    0.03
        parlp1.gs.gp            30.0    0.30            30.0    0.30
        parlp2.bc.gq             0.0    0.00             0.0    0.00
        scf_loop_dft          2463.1   24.93          2462.5   24.88
      pardft.bc.dens             0.0    0.00             0.0    0.00
        dft_grid_con             4.3    0.04             4.3    0.04
           dft_xcrhf          2419.5   24.49          2419.0   24.44
          dft_getval           103.2    1.04           103.2    1.04
          funct2 dst             2.2    0.02             2.1    0.02
      funct2 f2loop1            19.5    0.20            19.6    0.20
      funct2 f2loop2            46.0    0.47            46.0    0.46
          funct2 s+c            31.8    0.32            31.8    0.32
        funct2 cmf_2            29.3    0.30            29.2    0.30
          dft_mkdens           966.2    9.78           966.1    9.76
         dft_gga-fun             0.6    0.01             0.6    0.01
          dft_mkfock          1345.6   13.62          1345.4   13.59
     pardft.red.fock           185.2    1.87           185.1    1.87
     scf_loop_energy             0.4    0.00             0.4    0.00
     scf_loop_mkfock             0.7    0.01             0.7    0.01
       scf_loop_diis           560.5    5.67           564.6    5.70
       scf_loop_diag           422.8    4.28           422.3    4.27
         diag_tritrn           123.8    1.25           123.7    1.25
          diag_rdiag           297.8    3.01           297.6    3.01
     scf_loop_modump           157.8    1.60           170.0    1.72
      scf_loop_ortho           117.6    1.19           117.5    1.19
          Scf_a_loop             9.5    0.10            10.2    0.10
         Ridft_a_scf             2.7    0.03             2.8    0.03
         a_scf_fanal             2.7    0.03             2.7    0.03
 


    ------------------------------------------------------------------------
         total  cpu-time :  2 hours 44 minutes and 51 seconds
         total wall-time :  2 hours 45 minutes and 10 seconds
    ------------------------------------------------------------------------


   ****  ridft : all done  ****


    2015-10-19 06:08:31.710 

