
   OpenMP run-time library returned nthreads = 28
 operating system is UNIX !

 dscf (c-13-33) : TURBOMOLE V7.3 ( 22142 ) 4 Jul 2018 at 18:12:42
 Copyright (C) 2018 TURBOMOLE GmbH, Karlsruhe


    2019-04-01 23:48:20.496 



                             d s c f - program

                   idea & directorship : reinhart ahlrichs
                   program development : marco haeser
                                         michael baer
                           dft version : oliver treutler


                          quantum chemistry group
                          universitaet  karlsruhe
                                  germany




                          References             
                                                 
          TURBOMOLE:                             
              R. Ahlrichs, M. Baer, M. Haeser, H. Horn, and
              C. Koelmel
              Electronic structure calculations on workstation
              computers: the program system TURBOMOLE
              Chem. Phys. Lett. 162: 165 (1989)
          Density Functional:                              
              O. Treutler and R. Ahlrichs                      
              Efficient Molecular Numerical Integration Schemes
              J. Chem. Phys. 102: 346 (1995)                   
          Parallel Version:                                
              Performance of parallel TURBOMOLE for Density    
              Functional Calculations                          
              M. v. Arnim and R. Ahlrichs                      
              J. Comp. Chem. 19: 1746 (1998)                   
                                         




              +--------------------------------------------------+
              | Atomic coordinate, charge and isotop information |
              +--------------------------------------------------+

                    atomic coordinates            atom    charge  isotop
         -1.90270330   -0.05776555   -0.04681391    c      0.000     0
          0.11150013   -0.11515941   -0.09328750    h      0.000     0
         -4.19281813    0.00599699    0.00491177    c      0.000     0
         -6.19693601    0.06335289    0.05140146    h      0.000     0
          4.27815969   -0.27508754   -0.21820822    o      8.000     0
          5.35597711   -1.38959015    0.72103655    h      1.000     0
          5.35907518    0.38818370   -1.51337389    h      1.000     0
 
       center of nuclear mass  :   -0.00226360   -0.13811914   -0.10976101
       center of nuclear charge:    4.49403298   -0.32021067   -0.25380031

              +--------------------------------------------------+
              |               basis set information              |
              +--------------------------------------------------+

              we will work with the 1s 3p 5d 7f 9g ... basis set
              ...i.e. with spherical basis functions...

   type   atoms  prim   cont   basis
   ---------------------------------------------------------------------------
    c        2     50     30   cc-pVTZ   [4s3p2d1f|18s5p2d1f]
    h        4     16     14   cc-pVTZ   [3s2p1d|5s2p1d]
    o        1     50     30   cc-pVTZ   [4s3p2d1f|18s5p2d1f]
   ---------------------------------------------------------------------------
   total:    7    214    146
   ---------------------------------------------------------------------------

   total number of primitive shells          :   60
   total number of contracted shells         :   54
   total number of cartesian basis functions :  165
   total number of SCF-basis functions       :  146


 integral neglect threshold       :  0.20E-12
 integral storage threshold THIZE :  0.10E-04
 integral storage threshold THIME :         5


 DENSITY CONVERGENCE CHECK SWITCHED ON !
 SCF CONVERGENCE IF RMS(delta[D]) <     0.1000000000E-06


 symmetry group of the molecule :   c1 

 the group has the following generators :
   c1(z)

    1 symmetry operations found

 there are 1 real representations :   a   

 maximum number of shells which are related by symmetry :  1


    mo occupation :
   irrep   mo's   occupied
    a      146        5
 
 number of basis functions   :                    146
 number of occupied orbitals :                      5
 

 automatic virtual orbital shift switched on 
      shift if e(lumo)-e(homo) < 0.10000000    


          ------------------------
          nuclear repulsion energy  :   9.17684035774    
          ------------------------


         -----------------
         -S,T+V- integrals
         -----------------

 1e-integrals will be neglected if expon. factor < 0.202543E-13
 
   Difference densities algorithm switched on.
   The maximal number of linear combinations of
   difference densities is                    20 .

 DIIS switched on: error vector is FDS-SDF
 Max. Iterations for DIIS is     :   5
 DIIS matrix (see manual) 
    Scaling factor of diagonals  :  1.200
    threshold for scaling factor :  0.000

 scf convergence criterion : increment of total energy < .1000000D-08
                  and increment of one-electron energy < .1000000D-05

  MOs are in ASCII format !


 reading orbital data $scfmo  from file mos
 orbital characterization : scfconv=9

 DSCF restart information will be dumped onto file mos

 
                                              current damping :  0.700
 ITERATION  ENERGY          1e-ENERGY        2e-ENERGY     RMS[dD(SAO)]   TOL
   1  -76.049646237114    -123.04927174     37.822785149    0.000D+00 0.202D-12
          max. resid. norm for Fia-block=  1.034D-01 for orbital      1a         
          max. resid. fock norm         =  2.972D-01 for orbital    135a         
          Delta Eig. =    28.7356712774 eV 
 
                                              current damping :  0.650
 ITERATION  ENERGY          1e-ENERGY        2e-ENERGY     RMS[dD(SAO)]   TOL
   2  -76.056451337516    -123.03912309     37.805831395    0.355D-02 0.135D-12
          Norm of current diis error: 0.15863    
          max. resid. norm for Fia-block=  4.946D-02 for orbital      1a         
          max. resid. fock norm         =  1.092D-01 for orbital    124a         
          Delta Eig. =    12.5654659215 eV 
 
                                              current damping :  0.600
 ITERATION  ENERGY          1e-ENERGY        2e-ENERGY     RMS[dD(SAO)]   TOL
   3  -76.057701544802    -123.06173986     37.827197956    0.152D-02 0.101D-12
          Norm of current diis error: 0.65761E-01
          max. resid. norm for Fia-block=  2.006D-02 for orbital      1a         
          max. resid. fock norm         =  5.050D-02 for orbital    137a         
          Delta Eig. =     5.0192571426 eV 
 
                                              current damping :  0.650
 ITERATION  ENERGY          1e-ENERGY        2e-ENERGY     RMS[dD(SAO)]   TOL
   4  -76.057914994057    -123.05947395     37.824718599    0.596D-03 0.857D-13
          Norm of current diis error: 0.25003E-01
          max. resid. norm for Fia-block=  7.705D-03 for orbital      1a         
          max. resid. fock norm         =  1.842D-02 for orbital    127a         
          Delta Eig. =     1.8524648913 eV 
 
                                              current damping :  0.700
 ITERATION  ENERGY          1e-ENERGY        2e-ENERGY     RMS[dD(SAO)]   TOL
   5  -76.057946506305    -123.06184438     37.827057511    0.236D-03 0.791D-13
          Norm of current diis error: 0.10327E-01
          max. resid. norm for Fia-block=  3.031D-03 for orbital      1a         
          max. resid. fock norm         =  6.772D-03 for orbital    111a         
 mo-orthogonalization: Cholesky decomposition
          Delta Eig. =     0.7016132939 eV 
 
                                              current damping :  0.550
 ITERATION  ENERGY          1e-ENERGY        2e-ENERGY     RMS[dD(SAO)]   TOL
   6  -76.057951879608    -123.06217358     37.827381339    0.965D-04 0.738D-13
          Norm of current diis error: 0.44604E-02
          max. resid. norm for Fia-block=  1.247D-03 for orbital      1a         
          max. resid. fock norm         =  2.803D-03 for orbital    111a         
          Delta Eig. =     0.3167460757 eV 
 
                                              current damping :  0.400
 ITERATION  ENERGY          1e-ENERGY        2e-ENERGY     RMS[dD(SAO)]   TOL
   7  -76.057952995103    -123.06238659     37.827593238    0.485D-04 0.682D-13
          Norm of current diis error: 0.17332E-02
          max. resid. norm for Fia-block=  4.425D-04 for orbital      1a         
          max. resid. fock norm         =  9.936D-04 for orbital    111a         
          Delta Eig. =     0.1244806081 eV 
 
                                              current damping :  0.250
 ITERATION  ENERGY          1e-ENERGY        2e-ENERGY     RMS[dD(SAO)]   TOL
   8  -76.057953190496    -123.06250253     37.827708981    0.224D-04 0.624D-13
          Norm of current diis error: 0.60401E-03
          max. resid. norm for Fia-block=  1.401D-04 for orbital      3a         
          max. resid. fock norm         =  2.872D-04 for orbital    111a         
          Delta Eig. =     0.0395675849 eV 
 
                                              current damping :  0.100
 ITERATION  ENERGY          1e-ENERGY        2e-ENERGY     RMS[dD(SAO)]   TOL
   9  -76.057953219784    -123.06252456     37.827730987    0.916D-05 0.572D-13
          Norm of current diis error: 0.19106E-03
          max. resid. norm for Fia-block=  4.558D-05 for orbital      3a         
          max. resid. fock norm         =  5.773D-05 for orbital    111a         
          Delta Eig. =     0.0090269024 eV 
 
                                              current damping :  0.050
 ITERATION  ENERGY          1e-ENERGY        2e-ENERGY     RMS[dD(SAO)]   TOL
  10  -76.057953223648    -123.06253882     37.827745235    0.329D-05 0.533D-13
          Norm of current diis error: 0.55203E-04
          max. resid. norm for Fia-block=  1.437D-05 for orbital      3a         
          max. resid. fock norm         =  1.437D-05 for orbital      3a         
 mo-orthogonalization: Cholesky decomposition
          Delta Eig. =     0.0007812062 eV 
 
                                              current damping :  0.100
 ITERATION  ENERGY          1e-ENERGY        2e-ENERGY     RMS[dD(SAO)]   TOL
  11  -76.057953224023    -123.06253398     37.827740401    0.846D-06 0.506D-13
          Norm of current diis error: 0.12831E-04
          max. resid. norm for Fia-block=  3.163D-06 for orbital      3a         
          max. resid. fock norm         =  3.163D-06 for orbital      3a         
          Delta Eig. =     0.0000694985 eV 
 
                                              current damping :  0.150
 ITERATION  ENERGY          1e-ENERGY        2e-ENERGY     RMS[dD(SAO)]   TOL
  12  -76.057953224043    -123.06253741     37.827743825    0.154D-06 0.577D-13
          Norm of current diis error: 0.31865E-05
          max. resid. norm for Fia-block=  8.868D-07 for orbital      3a         
          max. resid. fock norm         =  8.868D-07 for orbital      3a         
          Delta Eig. =     0.0000193791 eV 

 ENERGY & DENSITY CONVERGED !

 
                                              current damping :  0.200
 ITERATION  ENERGY          1e-ENERGY        2e-ENERGY     RMS[dD(SAO)]   TOL
  13  -76.057953224045    -123.06253505     37.827741464    0.201D-07 0.578D-13
          max. resid. norm for Fia-block=  1.863D-07 for orbital      4a         
          max. resid. fock norm         =  1.872D-07 for orbital      4a         

 convergence criteria satisfied after    13 iterations


                  ------------------------------------------ 
                 |  total energy      =    -76.05795322404  |
                  ------------------------------------------ 
                 :  kinetic energy    =     75.98437716810  :
                 :  potential energy  =   -152.04233039214  :
                 :  virial theorem    =      1.99903263166  :
                 :  wavefunction norm =      1.00000000000  :
                  .......................................... 


 orbitals $scfmo  will be written to file mos

    irrep                  1a          2a          3a          4a          5a   
 eigenvalues H        -20.55902    -1.34742    -0.70999    -0.58000    -0.50710
            eV        -559.4438    -36.6655    -19.3199    -15.7827    -13.7990
 occupation              2.0000      2.0000      2.0000      2.0000      2.0000 

    irrep                  6a          7a          8a          9a         10a   
 eigenvalues H          0.11168     0.13830     0.17896     0.20245     0.27246
            eV           3.0389      3.7633      4.8698      5.5090      7.4141
 
 
 
 
 ==============================================================================
                           electrostatic moments
 ==============================================================================

 reference point for electrostatic moments:    0.00000   0.00000   0.00000

 
              nuc           elec       ->  total
 ------------------------------------------------------------------------------
                          charge      
 ------------------------------------------------------------------------------
          10.000000     -10.000000      -0.000000
 
 ------------------------------------------------------------------------------
                       dipole moment  
 ------------------------------------------------------------------------------
   x      44.940330     -44.153712       0.786617
   y      -3.202107       3.041246      -0.160861
   z      -2.538003       2.411135      -0.126869
 
   | dipole moment | =     0.8129 a.u. =     2.0661 debye 
 
 ------------------------------------------------------------------------------
                     quadrupole moment
 ------------------------------------------------------------------------------
  xx     203.827380    -201.385707       2.441673
  yy       2.687033      -7.099019      -4.411986
  zz       3.191113      -7.134522      -3.943409
  xy     -14.777255      13.623905      -1.153349
  xz     -11.716666      10.802732      -0.913934
  yz      -1.109201       0.089859      -1.019342
 
     1/3  trace=      -1.971241
     anisotropy=       7.320819
 
 ==============================================================================
 


    ------------------------------------------------------------------------
         total  cpu-time :  2 minutes and 26 seconds
         total wall-time :   6.05 seconds
    ------------------------------------------------------------------------

   ****  dscf : all done  ****


    2019-04-01 23:48:26.480 

