Using Slurm to start processes with PMI2
STARTING ridft ON 8 PROCESSORS!
RUNNING PROGRAM /modfac/apps/TURBOMOLE/7.0_intel_GA/bin/em64t-unknown-linux-gnu_mpi/ridft_mpi.
PLEASE WAIT UNTIL ridft HAS FINISHED.
Look for the output in slave1.output.
  this is node-proc. number 1 running on node c-5-27.local
  the total number of node-proc. spawned is            8
  parallel platform: MPP, or cluster with fast interconnect

 ridft (c-5-27.local) : TURBOMOLE V7.0.2( ) 15 Jan 2016 at 17:47:42
 Copyright (C) 2016 TURBOMOLE GmbH, Karlsruhe


    2016-01-31 06:17:42.141 



                                  r i d f t

                        DFT program with RI approximation 
                                for coulomb part 




                                                 
                                 References:     
                                                 
          TURBOMOLE:                             
              R. Ahlrichs, M. Baer, M. Haeser, H. Horn, and
              C. Koelmel
              Electronic structure calculations on workstation
              computers: the program system TURBOMOLE
              Chem. Phys. Lett. 162: 165 (1989)
          Density Functional:                              
              O. Treutler and R. Ahlrichs                      
              Efficient Molecular Numerical Integration Schemes
              J. Chem. Phys. 102: 346 (1995)                   
          Parallel Version:                                
              Performance of parallel TURBOMOLE for Density    
              Functional Calculations                          
              M. v. Arnim and R. Ahlrichs                      
              J. Comp. Chem. 19: 1746 (1998)                   
          RI-J Method:                                     
              Auxiliary Basis Sets to approximate Coulomb      
              Potentials                                       
              Chem. Phys. Lett. 240: 283 (1995)                
              K. Eichkorn, O. Treutler, H. Oehm, M. Haeser     
              and R. Ahlrichs                                  
              Chem. Phys. Lett. 242: 652 (1995)                
                                                           
              Auxiliary Basis Sets for Main Row Atoms and their
              Use to approximate Coulomb Potentials            
              K. Eichkorn, F. Weigend, O. Treutler and         
              R. Ahlrichs                                      
              Theo. Chem. Acc. 97: 119 (1997)                   
                                                           
              Accurate Coulomb-fitting basis sets for H to Rn 
              F. Weigend                                        
              Phys. Chem. Chem. Phys. 8: 1057 (2006)            
                                                           
          Multipole accelerated RI-J (MARI-J):             
              Fast evaluation of the Coulomb potential for     
              electron densities using multipole accelerated   
              resolution of identity approximation             
              M. Sierka, A. Hogekamp and R. Ahlrichs           
              J. Chem. Phys. 118: 9136 (2003)                  
          RI-JK Method:                                     
              A fully direct RI-HF algorithm: Implementation,
              optimised auxiliary basis sets, demonstration of
              accuracy and efficiency                         
              F. Weigend                                      
              Phys. Chem. Chem. Phys. 4: 4285 (2002)           
          Two-component HF and DFT with spin-orbit coupling:  
              Self-consistent treatment of spin-orbit         
              interactions with efficient Hartree-Fock and    
              density functional methods                      
              M. K. Armbruster, F. Weigend, C. van Wüllen and 
              W. Klopper                                      
              Phys. Chem. Chem. Phys. 10: 1748 (2008)         
          Relativistic all-electron 2c calculations           
              An efficient implementation of two-component    
              relativistic exact-decoupling methods for large 
              molecules                                       
              D. Peng, N. Middendorf, F. Weigend, M. Reiher   
              J. Chem. Phys. 138, 184105 (2013)               
                                         


 


              +--------------------------------------------------+
              |      general information about current run       |
              +--------------------------------------------------+

 

 SCF run will be profiled !


 DENSITY CONVERGENCE CHECK SWITCHED ON !
 SCF CONVERGENCE IF RMS(delta[D]) <     0.1000000000E-06

 PBE functional
 exchange:    LDA + PBE
 correlation: LDA (PW) + PBE
 A DFT calculation using the RI-J approximation will be carried out.
 Allocatable memory for RI due to $ricore (MB):        8000


              +--------------------------------------------------+
              | Atomic coordinate, charge and isotop information |
              +--------------------------------------------------+

                    atomic coordinates            atom    charge  isotop
          5.14666912    3.54004286  -14.14371193    c      6.000     0
          5.32101526    1.40053273  -15.66645325    c      6.000     0
          4.82182520   -0.96134148  -14.61941269    c      6.000     0
          4.21503414   -1.09832773  -12.05418506    c      6.000     0
          4.09212635    0.95005981  -10.56415490    n      7.000     0
          4.51448014    3.22638612  -11.60112322    c      6.000     0
          3.54900016   -3.63322526  -10.91838406    c      6.000     0
          3.27285448   -5.51885068  -12.25164254    o      8.000     0
          4.16006201    5.53914634   -9.96046299    c      6.000     0
          4.30923699    7.68545949  -10.84364539    o      8.000     0
          3.26705302   -3.57192254   -8.36156571    n      7.000     0
          2.32116951   -5.56063253   -6.81748938    c      6.000     0
         -0.14335462   -6.47149942   -7.15712986    c      6.000     0
         -1.05165149   -8.29517963   -5.46988788    c      6.000     0
          0.38779070   -9.20168125   -3.45426819    c      6.000     0
          2.84845979   -8.26093779   -3.18798688    c      6.000     0
          3.85292482   -6.47860479   -4.85081360    c      6.000     0
         -0.68067935  -11.09730333   -1.51852723    c      6.000     0
         -3.08614954  -12.41858095   -2.53967854    c      6.000     0
         -4.08793116  -14.45672617   -0.74237891    c      6.000     0
         -2.09644327  -16.50435782   -0.27620237    c      6.000     0
          0.34406244  -15.31263983    0.72231002    c      6.000     0
          1.29419784  -13.21336196   -1.03861238    c      6.000     0
         -1.70349362  -17.49555697   -2.05948023    h      1.000     0
         -2.80715038  -17.91930916    1.05949385    h      1.000     0
         -1.29897885   -9.58110047    0.89325465    c      6.000     0
         -3.50693486   -8.12894042    1.02627247    c      6.000     0
         -4.11820457   -6.68467943    3.14401296    c      6.000     0
         -2.42397061   -6.64110234    5.19279734    c      6.000     0
         -0.18029877   -8.05783003    5.12716715    c      6.000     0
          0.32323766   -9.51093494    2.97316282    c      6.000     0
         -6.55716071   -5.21836533    3.25569577    c      6.000     0
         -2.92701570   -4.95669495    7.22370491    n      7.000     0
         -3.07390412   -5.55636175    9.72262206    c      6.000     0
         -3.04897863   -7.71284162   10.59206615    o      8.000     0
          1.69319462   -7.98224098    7.26418284    c      6.000     0
         -1.80963954   -5.49144966   -9.24178124    c      6.000     0
          6.52261651   -5.52903631   -4.54961015    c      6.000     0
         -3.21948862   -3.26709082   11.42435823    c      6.000     0
         -2.99927883   -0.97449397   10.36244553    n      7.000     0
         -2.93807060    1.05826553   11.87757125    c      6.000     0
         -3.15327261    0.88802010   14.50275990    c      6.000     0
         -3.44635024   -1.49226004   15.58515723    c      6.000     0
         -3.45950273   -3.61493271   14.02927012    c      6.000     0
         -2.49672506    3.61285401   10.68109115    c      6.000     0
         -2.04020502    5.49110951   11.97383390    o      8.000     0
          3.62625217    4.96731522   -7.51062203    n      7.000     0
          2.82973260    6.66668924   -5.58703200    c      6.000     0
          0.60013923    8.07538558   -5.86055096    c      6.000     0
         -0.22693721    9.53209987   -3.80677771    c      6.000     0
          1.06510634    9.59871271   -1.50817153    c      6.000     0
          3.28481645    8.16851128   -1.31126207    c      6.000     0
          4.21078226    6.72852107   -3.31320014    c      6.000     0
          0.13721301   11.16051467    0.76964766    c      6.000     0
         -2.09576297   12.90367364    0.04497548    c      6.000     0
         -2.92573069   14.61041760    2.23514917    c      6.000     0
         -0.74149074   16.27987725    3.14450429    c      6.000     0
          1.55690757   14.65955048    3.83572831    c      6.000     0
          2.31582158   12.92999753    1.63822248    c      6.000     0
         -0.21813109   17.60245878    1.63134388    h      1.000     0
         -1.33323958   17.42193324    4.76821367    h      1.000     0
         -0.63428658    9.27734589    2.85341087    c      6.000     0
         -3.08512909    8.28442709    2.95968907    c      6.000     0
         -3.78871192    6.46715305    4.73862056    c      6.000     0
         -1.96397347    5.58478323    6.45263996    c      6.000     0
          0.50616314    6.55120807    6.42503106    c      6.000     0
          1.10677480    8.39701697    4.63198331    c      6.000     0
         -6.44613930    5.44267582    4.81124273    c      6.000     0
         -2.62530203    3.57596656    8.11157384    n      7.000     0
          2.48929844    5.60872606    8.23089114    c      6.000     0
         -0.92432174    7.99112269   -8.25944491    c      6.000     0
          6.65304541    5.28448685   -3.06802707    c      6.000     0
         -3.08131184   -3.08174648    6.78853878    h      1.000     0
          3.63615433   -1.88471836   -7.50478278    h      1.000     0
         -4.81277341   -8.10915499   -0.55712906    h      1.000     0
          2.06902335  -10.58805993    2.95010816    h      1.000     0
         -2.96530156   -8.97378028   -5.75306334    h      1.000     0
          4.03131496   -8.91329015   -1.64043346    h      1.000     0
         -7.63609984   -5.72794888    4.94785104    h      1.000     0
         -7.71529827   -5.60980320    1.59071477    h      1.000     0
         -6.22069497   -3.17742331    3.35010649    h      1.000     0
          2.01803854   -6.03701359    7.89743007    h      1.000     0
          3.49850668   -8.79535234    6.67335997    h      1.000     0
          0.98065448   -9.03289092    8.89870146    h      1.000     0
          7.47677703   -6.51095690   -3.00234019    h      1.000     0
          6.56951952   -3.49351780   -4.15856912    h      1.000     0
          7.60546738   -5.82802878   -6.28783694    h      1.000     0
         -1.18973378   -6.22386971  -11.07543920    h      1.000     0
         -3.77340514   -6.04959917   -8.92485527    h      1.000     0
         -1.71791223   -3.42586561   -9.35486245    h      1.000     0
         -4.58022371  -11.04153751   -2.91607419    h      1.000     0
         -2.60587565  -13.28171336   -4.36547524    h      1.000     0
         -4.61777257  -13.58042237    1.06246072    h      1.000     0
         -5.80981182  -15.28712852   -1.53967326    h      1.000     0
         -0.00746442  -14.53518760    2.61133695    h      1.000     0
          1.82328336  -16.74930412    0.92817678    h      1.000     0
          1.76371919  -14.02651112   -2.88850309    h      1.000     0
          3.05559267  -12.42249268   -0.30086330    h      1.000     0
         -3.62230264   -5.52334823   14.75808080    h      1.000     0
         -3.63154340   -1.69345918   17.61946631    h      1.000     0
          4.86527000   -2.69174480  -15.71588849    h      1.000     0
          5.81196611    1.57470879  -17.65127040    h      1.000     0
         -3.11523243    1.89271190    7.31067011    h      1.000     0
          3.64649114    3.09193210   -7.05364846    h      1.000     0
         -4.51185342    8.92521432    1.63068247    h      1.000     0
          3.02384527    9.12781186    4.63546041    h      1.000     0
         -1.95794525   10.60555880   -4.04510997    h      1.000     0
          4.33652463    8.16082010    0.45158785    h      1.000     0
         -6.48950851    3.42647032    4.32985390    h      1.000     0
         -7.25486649    5.62677294    6.70786637    h      1.000     0
         -7.65531836    6.45558793    3.47666145    h      1.000     0
          2.46992875    3.54077986    8.34051416    h      1.000     0
          4.36802637    6.22213116    7.62931573    h      1.000     0
          2.13038276    6.31674975   10.14278376    h      1.000     0
          6.36321812    3.24498102   -3.26933959    h      1.000     0
          7.52479497    5.63920734   -1.22854875    h      1.000     0
          7.98294018    5.85040313   -4.55017707    h      1.000     0
         -1.14438035    6.04347645   -8.92821898    h      1.000     0
         -2.80032846    8.80196638   -7.95665409    h      1.000     0
          0.02978208    9.03908922   -9.76721959    h      1.000     0
         -3.70718914   11.80154757   -0.63908648    h      1.000     0
         -1.48024138   14.08709574   -1.54422750    h      1.000     0
         -3.59837871   13.43789922    3.80742021    h      1.000     0
         -4.52381539   15.78114073    1.62724317    h      1.000     0
          1.10817320   13.50694982    5.49976445    h      1.000     0
          3.16296691   15.86389184    4.34841101    h      1.000     0
          2.84764721   14.08063288   -0.00319364    h      1.000     0
          3.99578811   11.83227452    2.13423780    h      1.000     0
         -3.06642080    2.60778427   15.61350313    h      1.000     0
          5.45416536    5.43689326  -14.85593082    h      1.000     0
 
       center of nuclear mass  :    0.10489619   -0.00520484   -0.04526389
       center of nuclear charge:    0.09036596   -0.00555521   -0.03656370

              +--------------------------------------------------+
              |               basis set information              |
              +--------------------------------------------------+

              we will work with the 1s 3p 5d 7f 9g ... basis set
              ...i.e. with spherical basis functions...

   type   atoms  prim   cont   basis
   ---------------------------------------------------------------------------
    c       58     50     30   cc-pVTZ   [4s3p2d1f|18s5p2d1f]
    n        6     50     30   cc-pVTZ   [4s3p2d1f|18s5p2d1f]
    o        4     50     30   cc-pVTZ   [4s3p2d1f|18s5p2d1f]
    h       62     16     14   cc-pVTZ   [3s2p1d|5s2p1d]
   ---------------------------------------------------------------------------
   total:  130   4392   2908
   ---------------------------------------------------------------------------

   total number of primitive shells          :   86
   total number of contracted shells         : 1052
   total number of cartesian basis functions : 3310
   total number of SCF-basis functions       : 2908


 integral neglect threshold       :  0.10E-13
 integral storage threshold THIZE :  0.10E-04
 integral storage threshold THIME :         5

 RI-J AUXILIARY BASIS SET information:

              we will work with the 1s 3p 5d 7f 9g ... basis set
              ...i.e. with spherical basis functions...

   type   atoms  prim   cont   basis
   ---------------------------------------------------------------------------
    c       58     70     49   cc-pVTZ   [6s4p3d1f1g|12s5p4d2f1g]
    n        6     70     49   cc-pVTZ   [6s4p3d1f1g|12s5p4d2f1g]
    o        4     70     49   cc-pVTZ   [6s4p3d1f1g|12s5p4d2f1g]
    h       62     16     11   cc-pVTZ   [3s1p1d|5s2p1d]
   ---------------------------------------------------------------------------
   total:  130   5752   4014
   ---------------------------------------------------------------------------

   total number of primitive shells          :   80
   total number of contracted shells         : 1330
   total number of cartesian basis functions : 4892
   total number of SCF-basis functions       : 4014


 symmetry group of the molecule :   c1 

 the group has the following generators :
   c1(z)

    1 symmetry operations found

 there are 1 real representations :   a   

 maximum number of shells which are related by symmetry :  1


    mo occupation :
   irrep   mo's   occupied
    a     2908      242
 
 number of basis functions   :         2908
 number of occupied orbitals :          242
 
  
           ------------------
           density functional
           ------------------
 PBE functional
 exchange:    LDA + PBE
 correlation: LDA (PW) + PBE
 grinp -> nfun, dfgga, dfhybrid 
           6 T F
 iterations will be done with small grid
  
 spherical integration : Lebedev's spherical grid
 spherical gridsize    :           5
    i.e. gridpoints    :         590
 value for diffuse not defined
 radial integration    : Chebyshev 2nd kind (scaling 3)
 radial gridsize       :           8
 integration cells     :         130
 partition function    : becke
 partition sharpness   :           3
  

 <rddim> : input of entry tasksize
           from data group '$pardft' failed !

               Default values taken

 <rddim> : input of entry memdiv
           from data group '$pardft' failed !

               Default values taken
  RIDFT: memory allocation for DFT gridpoints
  MEMORY is divided by 1 as DEFAULT
 Each node can hold at most  the            1 -th part
 of the gridpoints    

 biggest AO integral is expected to be     4.866064444
  
           ------------------------
               RI-J - INFORMATION
           ------------------------
 
 
 **************************************************
 *      MEMORY ALLOCATION FOR PARALLEL RI-DFT     *
 **************************************************
 
 
MEMORY FOR (MU NU/ ALPHA), SEQUENTIAL RUN               7871 MByte
 
            DIFFERENCE IN MEMORY NEED:       DIAG./SLAVE  
 
      TOTAL DIFFERENCE :                    466 MByte
 
      difference in xcore:                  130 MByte
      difference in fatmat:                 124 MByte
      getcor calls skipped by slaves:       213 MByte
 
 
           Integral memory available for diagonal.      7871 MByte
 
           Integral memory available for slave             0 MByte
 
         MEMORY FOR (MU NU/ ALPHA) ON DIAGONALIZER      7871 MByte
 
         MEMORY FOR (MU NU/ ALPHA) ON ONE SLAVE            0 MByte
 
         TOTAL MEMORY FOR (MU NU/ ALPHA),ALL NODES      7871 MByte
 
 Contributions to RI integral batches: 
  neglected integral batches:      387596
  direct contribution:             109425
  memory contribution:       56857
 Memory core needed for (P|Q) and Cholesky    123 MByte
 Memory core minimum needed except of (P|Q)     8 MByte
 Total minimum memory core needed (sum)       131 MByte
     number of direct tasks:         160
  
 ****************************************
 Memory allocated for RI-J  8002 MByte
 ****************************************
                                            

          ------------------------
          nuclear repulsion energy  :   10142.4245792    
          ------------------------

 
          -----------------
          -S integrals
          -----------------

 1e-integrals will be neglected if expon. factor < 0.100966E-14
 
          -----------------
          -T+V integrals
          -----------------

 1e-integrals will be neglected if expon. factor < 0.100966E-14
 Difference densities >>NOT<< switched on in parallel ridft!

 automatic virtual orbital shift switched on 
      shift if e(lumo)-e(homo) < 0.10000000    


 DIIS switched on: error vector is FDS-SDF
 Max. Iterations for DIIS is     :   4
 DIIS matrix (see manual) 
    Scaling factor of diagonals  :  1.200
    threshold for scaling factor :  0.000

 scf convergence criterion : increment of total energy < .1000000D-08
                  and increment of one-electron energy < .1000000D-05


 <geterg> : there is no data group $energy 

  MOs are in ASCII format !


 reading orbital data $scfmo  from file mos . 

 orbital characterization : expanded
 
 mo provided and orthogonalized by Cholesky decomposition

 DSCF restart information will be dumped onto file mos


 Starting SCF iterations


 ITERATION  ENERGY          1e-ENERGY        2e-ENERGY     RMS[dD(SAO)]   TOL
   1  -2864.6839959533    -24007.936379     11000.827804    0.000D+00 0.101D-13
                            Exc = -403.259584752     Coul =  11404.0873883    
                              N = 483.99951664    
                            current damping = 0.700
 
          max. resid. norm for Fia-block=  3.420D-01 for orbital    133a         
          max. resid. fock norm         =  4.424D+00 for orbital   2790a         

 ITERATION  ENERGY          1e-ENERGY        2e-ENERGY     RMS[dD(SAO)]   TOL
   2  -2872.5277496496    -24076.595331     11061.643002    0.192D-02 0.101D-13
                            Exc = -407.228984179     Coul =  11468.8719860    
                              N = 483.99957112    
                            current damping = 0.650
 
          Norm of current diis error:  6.4774    
          max. resid. norm for Fia-block=  1.544D-01 for orbital      3a         
          max. resid. fock norm         =  3.673D-01 for orbital   2848a         

 ITERATION  ENERGY          1e-ENERGY        2e-ENERGY     RMS[dD(SAO)]   TOL
   3  -2873.8806408258    -24096.822270     11080.517050    0.104D-02 0.101D-13
                            Exc = -409.400701443     Coul =  11489.9177517    
                              N = 483.99960111    
                            current damping = 0.550
 
          Norm of current diis error:  3.2655    
          max. resid. norm for Fia-block=  6.749D-02 for orbital    240a         
          max. resid. fock norm         =  6.801D-02 for orbital    240a         

 ITERATION  ENERGY          1e-ENERGY        2e-ENERGY     RMS[dD(SAO)]   TOL
   4  -2874.3120807327    -24105.756898     11089.020238    0.102D-02 0.101D-13
                            Exc = -409.632848651     Coul =  11498.6530871    
                              N = 483.99963256    
                            current damping = 0.450
 
          Norm of current diis error:  1.4987    
          max. resid. norm for Fia-block=  4.643D-02 for orbital    242a         
          max. resid. fock norm         =  9.380D-02 for orbital   2816a         

 ITERATION  ENERGY          1e-ENERGY        2e-ENERGY     RMS[dD(SAO)]   TOL
   5  -2874.3653010902    -24109.242194     11092.452314    0.335D-03 0.101D-13
                            Exc = -410.540541801     Coul =  11502.9928559    
                              N = 483.99962904    
                            current damping = 0.350
 
          Norm of current diis error:  1.0892    
          max. resid. norm for Fia-block=  1.949D-02 for orbital    231a         
          max. resid. fock norm         =  2.714D-02 for orbital   2866a         
          mo-orthogonalization: Cholesky decomposition

 ITERATION  ENERGY          1e-ENERGY        2e-ENERGY     RMS[dD(SAO)]   TOL
   6  -2874.4138230211    -24113.966700     11097.128298    0.384D-03 0.101D-13
                            Exc = -410.524320716     Coul =  11507.6526186    
                              N = 483.99963752    
                            current damping = 0.250
 
          Norm of current diis error: 0.47951    
          max. resid. norm for Fia-block=  1.089D-02 for orbital    216a         
          max. resid. fock norm         =  1.646D-02 for orbital   2877a         

 ITERATION  ENERGY          1e-ENERGY        2e-ENERGY     RMS[dD(SAO)]   TOL
   7  -2874.4188248041    -24110.668671     11093.825267    0.136D-03 0.101D-13
                            Exc = -410.420847968     Coul =  11504.2461149    
                              N = 483.99963943    
                            current damping = 0.300
 
          Norm of current diis error: 0.33263    
          max. resid. norm for Fia-block=  5.427D-03 for orbital    216a         
          max. resid. fock norm         =  8.506D-03 for orbital   2877a         

 ITERATION  ENERGY          1e-ENERGY        2e-ENERGY     RMS[dD(SAO)]   TOL
   8  -2874.4229307434    -24111.802101     11094.954591    0.476D-04 0.101D-13
                            Exc = -410.476101372     Coul =  11505.4306922    
                              N = 483.99963846    
                            current damping = 0.350
 
          Norm of current diis error: 0.10644    
          max. resid. norm for Fia-block=  1.509D-03 for orbital    229a         
          max. resid. fock norm         =  2.506D-03 for orbital   2857a         

 ITERATION  ENERGY          1e-ENERGY        2e-ENERGY     RMS[dD(SAO)]   TOL
   9  -2874.4231807943    -24112.204126     11095.356366    0.201D-04 0.101D-13
                            Exc = -410.509170544     Coul =  11505.8655363    
                              N = 483.99963825    
                            current damping = 0.200
 
          Norm of current diis error: 0.68544E-01
          max. resid. norm for Fia-block=  6.892D-04 for orbital    241a         
          max. resid. fock norm         =  1.233D-03 for orbital   2857a         

 ITERATION  ENERGY          1e-ENERGY        2e-ENERGY     RMS[dD(SAO)]   TOL
  10  -2874.4233322377    -24112.053552     11095.205640    0.126D-04 0.101D-13
                            Exc = -410.492866181     Coul =  11505.6985066    
                              N = 483.99963853    
                            current damping = 0.250
 
          Norm of current diis error: 0.27120E-01
          max. resid. norm for Fia-block=  3.756D-04 for orbital    229a         
          max. resid. fock norm         =  6.263D-04 for orbital   2865a         
          mo-orthogonalization: Cholesky decomposition

 ITERATION  ENERGY          1e-ENERGY        2e-ENERGY     RMS[dD(SAO)]   TOL
  11  -2874.4233563721    -24112.064784     11095.216848    0.471D-05 0.101D-13
                            Exc = -410.493936409     Coul =  11505.7107846    
                              N = 483.99963842    
                            current damping = 0.300
 
          Norm of current diis error: 0.11715E-01
          max. resid. norm for Fia-block=  2.122D-04 for orbital    216a         
          max. resid. fock norm         =  3.439D-04 for orbital   2877a         

 ITERATION  ENERGY          1e-ENERGY        2e-ENERGY     RMS[dD(SAO)]   TOL
  12  -2874.4233598929    -24112.040124     11095.192185    0.202D-05 0.101D-13
                            Exc = -410.494554020     Coul =  11505.6867394    
                              N = 483.99963843    
                            current damping = 0.350
 
          Norm of current diis error: 0.70784E-02
          max. resid. norm for Fia-block=  9.619D-05 for orbital    216a         
          max. resid. fock norm         =  1.445D-04 for orbital   2877a         

 ITERATION  ENERGY          1e-ENERGY        2e-ENERGY     RMS[dD(SAO)]   TOL
  13  -2874.4233617293    -24112.062816     11095.214875    0.124D-05 0.101D-13
                            Exc = -410.493960026     Coul =  11505.7088355    
                              N = 483.99963846    
                            current damping = 0.400
 
          Norm of current diis error: 0.18933E-02
          max. resid. norm for Fia-block=  4.761D-05 for orbital    236a         
          max. resid. fock norm         =  7.364D-05 for orbital   2866a         

 ITERATION  ENERGY          1e-ENERGY        2e-ENERGY     RMS[dD(SAO)]   TOL
  14  -2874.4233618232    -24112.048846     11095.200905    0.803D-06 0.101D-13
                            Exc = -410.494077862     Coul =  11505.6949832    
                              N = 483.99963844    
                            current damping = 0.450
 
          Norm of current diis error: 0.13037E-02
          max. resid. norm for Fia-block=  1.542D-05 for orbital    216a         
          max. resid. fock norm         =  2.539D-05 for orbital   2877a         

 ITERATION  ENERGY          1e-ENERGY        2e-ENERGY     RMS[dD(SAO)]   TOL
  15  -2874.4233618916    -24112.055405     11095.207464    0.230D-06 0.101D-13
                            Exc = -410.494128147     Coul =  11505.7015923    
                              N = 483.99963844    
                            current damping = 0.500
 
          Norm of current diis error: 0.30324E-03
          max. resid. norm for Fia-block=  6.849D-06 for orbital    235a         
          max. resid. fock norm         =  1.145D-05 for orbital   2887a         
          mo-orthogonalization: Cholesky decomposition

 ITERATION  ENERGY          1e-ENERGY        2e-ENERGY     RMS[dD(SAO)]   TOL
  16  -2874.4233618943    -24112.055320     11095.207379    0.113D-06 0.101D-13
                            Exc = -410.494078737     Coul =  11505.7014573    
                              N = 483.99963845    
                            current damping = 0.550
 
          Norm of current diis error: 0.20611E-03
          max. resid. norm for Fia-block=  2.819D-06 for orbital    241a         
          max. resid. fock norm         =  4.865D-06 for orbital   2859a         

 DENSITY CONVERGED !


 ITERATION  ENERGY          1e-ENERGY        2e-ENERGY     RMS[dD(SAO)]   TOL
  17  -2874.4233618959    -24112.055399     11095.207458    0.294D-07 0.101D-13
                            Exc = -410.494077716     Coul =  11505.7015356    
                              N = 483.99963845    
                            current damping = 0.600
 
          Norm of current diis error: 0.67358E-04
          max. resid. norm for Fia-block=  9.667D-07 for orbital    242a         
          max. resid. fock norm         =  1.758D-06 for orbital   2855a         

 DENSITY CONVERGED !


 ITERATION  ENERGY          1e-ENERGY        2e-ENERGY     RMS[dD(SAO)]   TOL
  18  -2874.4233618963    -24112.055640     11095.207699    0.122D-07 0.101D-13
                            Exc = -410.494085077     Coul =  11505.7017839    
                              N = 483.99963845    
                            current damping = 0.450
 
          Norm of current diis error: 0.25885E-04
          max. resid. norm for Fia-block=  5.128D-07 for orbital    215a         
          max. resid. fock norm         =  7.215D-07 for orbital   2904a         

 DENSITY CONVERGED !


 ITERATION  ENERGY          1e-ENERGY        2e-ENERGY     RMS[dD(SAO)]   TOL
  19  -2874.4233618960    -24112.055587     11095.207646    0.466D-08 0.101D-13
                            Exc = -410.494087122     Coul =  11505.7017331    
                              N = 483.99963845    
                            current damping = 0.500
 
          Norm of current diis error: 0.12661E-04
          max. resid. norm for Fia-block=  1.972D-07 for orbital    230a         
          max. resid. fock norm         =  3.203D-07 for orbital     76a         

 ENERGY & DENSITY CONVERGED !


 ITERATION  ENERGY          1e-ENERGY        2e-ENERGY     RMS[dD(SAO)]   TOL
  20  -2874.4233909256    -24112.055541     11095.207570    0.278D-08 0.101D-13
                            Exc = -410.494115491     Coul =  11505.7016860    
                              N = 484.00004655    
                            current damping = 0.350
 
          Norm of current diis error: 0.10163E-04
          max. resid. norm for Fia-block=  1.750D-07 for orbital    236a         
          max. resid. fock norm         =  2.572D-07 for orbital    230a         

 End of SCF iterations

   convergence criteria satisfied after   20 iterations


                  ------------------------------------------ 
                 |  total energy      =  -2874.42339092562  |
                  ------------------------------------------ 
                 :  kinetic energy    =   2855.51616479524  :
                 :  potential energy  =  -5729.93955572086  :
                 :  virial theorem    =      1.99342225429  :
                 :  wavefunction norm =      1.00000000000  :
                  .......................................... 


 <geterg> : there is no data group $energy 


 <skperg> : $end is missing 


 orbitals $scfmo  will be written to file mos

    irrep                238a        239a        240a        241a        242a   
 eigenvalues H         -0.21605    -0.21428    -0.21114    -0.20221    -0.20006
            eV          -5.8790     -5.8310     -5.7456     -5.5025     -5.4441
 occupation              2.0000      2.0000      2.0000      2.0000      2.0000 

    irrep                243a        244a        245a        246a        247a   
 eigenvalues H         -0.10053    -0.09903    -0.09655    -0.09482    -0.05355
            eV          -2.7356     -2.6949     -2.6274     -2.5802     -1.4573
 
 
 ! grave: sending quit signal to master process
 
 
 
 
 ==============================================================================
                           electrostatic moments
 ==============================================================================

 reference point for electrostatic moments:    0.00000   0.00000   0.00000

 
              nuc           elec       ->  total
 ------------------------------------------------------------------------------
                          charge      
 ------------------------------------------------------------------------------
         484.000000    -484.000000      -0.000000
 
 ------------------------------------------------------------------------------
                       dipole moment  
 ------------------------------------------------------------------------------
   x      43.737126     -43.949756      -0.212631
   y      -2.688721       2.678926      -0.009796
   z     -17.696832      17.873150       0.176319
 
   | dipole moment | =     0.2764 a.u. =     0.7025 debye 
 
 ------------------------------------------------------------------------------
                     quadrupole moment
 ------------------------------------------------------------------------------
  xx    5494.091392   -5780.703356    -286.611965
  yy   33495.322388  -33814.076227    -318.753839
  zz   29513.621477  -29814.291529    -300.670053
  xy    1899.345727   -1903.792159      -4.446432
  xz   -8078.146119    8080.606040       2.459921
  yz     615.457116    -617.796540      -2.339425
 
     1/3  trace=    -302.011952
     anisotropy=      29.542533
 
 ==============================================================================
 

    ridft profiling
  --------------------------------------------------------------------
             module   cpu total (s)       %  wall total (s)       %

               RIDFT          2585.9  100.00          2594.3  100.00
         Ridft_b_scf           135.3    5.23           135.3    5.21
        b_scf_prelim             0.0    0.00             0.0    0.00
        b_scf_molinp             0.0    0.00             0.0    0.00
         b_scf_init0             0.0    0.00             0.0    0.00
        b_scf_auxbas             0.0    0.00             0.0    0.00
      b_scf_symmetry             0.0    0.00             0.0    0.00
         b_scf_cosmo             0.0    0.00             0.0    0.00
        b_scf_params             3.3    0.13             3.3    0.13
          b_scf_ri-j            72.0    2.78            72.0    2.77
    b_scf_ri-j_auxpq            72.0    2.78            71.9    2.77
     ri-j_auxpq_chol             9.5    0.37             9.5    0.37
         b_scf_1elec             3.2    0.12             3.2    0.12
       b_scf_moinput            56.7    2.19            56.7    2.19
     moinput_orthmos            55.9    2.16            55.9    2.16
    b_scf_dft-dstmax             0.0    0.00             0.0    0.00
           Ridft_scf          2449.1   94.71          2457.6   94.73
          Scf_b_loop             0.0    0.00             0.0    0.00
                noga             0.0    0.00             0.0    0.00
            Scf_loop          2443.4   94.49          2451.3   94.49
     scf_loop_mkdmat            21.0    0.81            21.1    0.81
       scf_loop_ri-j           621.6   24.04           621.2   23.94
      parlp1.bc.dens             1.8    0.07             1.8    0.07
        parlp1.gs.gp            11.6    0.45            11.6    0.45
        parlp2.bc.gq             0.0    0.00             0.0    0.00
        scf_loop_dft          1079.7   41.75          1079.1   41.60
      pardft.bc.dens             0.0    0.00             0.0    0.00
        dft_grid_con             9.5    0.37             9.5    0.37
           dft_xcrhf          1030.8   39.86          1030.3   39.71
          dft_getval            54.3    2.10            54.3    2.09
          funct2 dst             1.5    0.06             1.5    0.06
      funct2 f2loop1             9.4    0.36             9.5    0.36
      funct2 f2loop2            27.5    1.06            27.4    1.06
          funct2 s+c            14.8    0.57            14.8    0.57
        funct2 cmf_2            13.1    0.51            13.1    0.51
          dft_mkdens           440.7   17.04           440.4   16.98
         dft_gga-fun             0.9    0.03             0.9    0.04
          dft_mkfock           533.9   20.65           533.6   20.57
     pardft.red.fock           117.2    4.53           117.2    4.52
     scf_loop_energy             0.2    0.01             0.2    0.01
     scf_loop_mkfock             0.3    0.01             0.3    0.01
       scf_loop_diis           367.8   14.22           367.6   14.17
       scf_loop_diag           200.3    7.74           200.2    7.72
         diag_tritrn            65.5    2.53            65.4    2.52
          diag_rdiag           134.2    5.19           134.1    5.17
     scf_loop_modump            98.6    3.81           107.8    4.16
      scf_loop_ortho            50.4    1.95            50.4    1.94
          Scf_a_loop             5.8    0.22             6.3    0.24
         Ridft_a_scf             1.4    0.06             1.5    0.06
         a_scf_fanal             1.4    0.05             1.4    0.06
 


    ------------------------------------------------------------------------
         total  cpu-time : 43 minutes and 13 seconds
         total wall-time : 43 minutes and 21 seconds
    ------------------------------------------------------------------------


   ****  ridft : all done  ****


    2016-01-31 07:01:03.390 

