Using Slurm to start processes with PMI2
STARTING ridft ON 8 PROCESSORS!
RUNNING PROGRAM /beegfs/modfac/apps/TURBOMOLE/7.0_intel_GA/bin/em64t-unknown-linux-gnu_mpi/ridft_mpi.
PLEASE WAIT UNTIL ridft HAS FINISHED.
Look for the output in slave1.output.
  this is node-proc. number 1 running on node c-8-251.local
  the total number of node-proc. spawned is            8
  parallel platform: MPP, or cluster with fast interconnect

 ridft (c-8-251.local) : TURBOMOLE V7.0.2( ) 15 Jan 2016 at 17:47:42
 Copyright (C) 2016 TURBOMOLE GmbH, Karlsruhe


    2018-01-24 11:07:48.135 



                                  r i d f t

                        DFT program with RI approximation 
                                for coulomb part 




                                                 
                                 References:     
                                                 
          TURBOMOLE:                             
              R. Ahlrichs, M. Baer, M. Haeser, H. Horn, and
              C. Koelmel
              Electronic structure calculations on workstation
              computers: the program system TURBOMOLE
              Chem. Phys. Lett. 162: 165 (1989)
          Density Functional:                              
              O. Treutler and R. Ahlrichs                      
              Efficient Molecular Numerical Integration Schemes
              J. Chem. Phys. 102: 346 (1995)                   
          Parallel Version:                                
              Performance of parallel TURBOMOLE for Density    
              Functional Calculations                          
              M. v. Arnim and R. Ahlrichs                      
              J. Comp. Chem. 19: 1746 (1998)                   
          RI-J Method:                                     
              Auxiliary Basis Sets to approximate Coulomb      
              Potentials                                       
              Chem. Phys. Lett. 240: 283 (1995)                
              K. Eichkorn, O. Treutler, H. Oehm, M. Haeser     
              and R. Ahlrichs                                  
              Chem. Phys. Lett. 242: 652 (1995)                
                                                           
              Auxiliary Basis Sets for Main Row Atoms and their
              Use to approximate Coulomb Potentials            
              K. Eichkorn, F. Weigend, O. Treutler and         
              R. Ahlrichs                                      
              Theo. Chem. Acc. 97: 119 (1997)                   
                                                           
              Accurate Coulomb-fitting basis sets for H to Rn 
              F. Weigend                                        
              Phys. Chem. Chem. Phys. 8: 1057 (2006)            
                                                           
          Multipole accelerated RI-J (MARI-J):             
              Fast evaluation of the Coulomb potential for     
              electron densities using multipole accelerated   
              resolution of identity approximation             
              M. Sierka, A. Hogekamp and R. Ahlrichs           
              J. Chem. Phys. 118: 9136 (2003)                  
          RI-JK Method:                                     
              A fully direct RI-HF algorithm: Implementation,
              optimised auxiliary basis sets, demonstration of
              accuracy and efficiency                         
              F. Weigend                                      
              Phys. Chem. Chem. Phys. 4: 4285 (2002)           
          Two-component HF and DFT with spin-orbit coupling:  
              Self-consistent treatment of spin-orbit         
              interactions with efficient Hartree-Fock and    
              density functional methods                      
              M. K. Armbruster, F. Weigend, C. van Wüllen and 
              W. Klopper                                      
              Phys. Chem. Chem. Phys. 10: 1748 (2008)         
          Relativistic all-electron 2c calculations           
              An efficient implementation of two-component    
              relativistic exact-decoupling methods for large 
              molecules                                       
              D. Peng, N. Middendorf, F. Weigend, M. Reiher   
              J. Chem. Phys. 138, 184105 (2013)               
                                         


 


              +--------------------------------------------------+
              |      general information about current run       |
              +--------------------------------------------------+

 

 SCF run will be profiled !


 DENSITY CONVERGENCE CHECK SWITCHED ON !
 SCF CONVERGENCE IF RMS(delta[D]) <     0.1000000000E-06

 TPSS meta-GGA functional
 exchange:    LDA + TPSS
 correlation: LDA (PW) + TPSS
 A DFT calculation using the RI-J approximation will be carried out.
 Allocatable memory for RI due to $ricore (MB):       18000


              +--------------------------------------------------+
              | Atomic coordinate, charge and isotop information |
              +--------------------------------------------------+

                    atomic coordinates            atom    charge  isotop
          1.29102896    2.23612775    5.35940406    c      6.000     0
          2.68444732    0.00000000    5.34775669    c      6.000     0
          1.29102896   -2.23612775    5.35940406    c      6.000     0
         -1.34222366   -2.32479958    5.34775669    c      6.000     0
         -2.58205792    0.00000000    5.35940406    c      6.000     0
         -1.34222366    2.32479958    5.34775669    c      6.000     0
         -2.74209098    4.74944089    5.17369628    c      6.000     0
         -3.47165961    6.01309083    7.36565771    c      6.000     0
         -4.78742225    8.29205857    7.27396970    c      6.000     0
         -5.38971831    9.33526596    4.93546263    c      6.000     0
         -4.67190964    8.09198487    2.72597715    c      6.000     0
         -3.35880377    5.81761878    2.81855316    c      6.000     0
         -2.74209098   -4.74944089    5.17369628    c      6.000     0
         -3.35880377   -5.81761878    2.81855316    c      6.000     0
         -4.67190964   -8.09198487    2.72597715    c      6.000     0
         -5.38971831   -9.33526596    4.93546263    c      6.000     0
         -4.78742225   -8.29205857    7.27396970    c      6.000     0
         -3.47165961   -6.01309083    7.36565771    c      6.000     0
          5.48418196    0.00000000    5.17369628    c      6.000     0
          6.71760754    0.00000000    2.81855316    c      6.000     0
          9.34381929    0.00000000    2.72597715    c      6.000     0
         10.77943663    0.00000000    4.93546263    c      6.000     0
          9.57484449    0.00000000    7.27396970    c      6.000     0
          6.94331922    0.00000000    7.36565771    c      6.000     0
          2.56458096    4.44198451    5.30703898    f      9.000     0
         -5.12916191    0.00000000    5.30703898    f      9.000     0
          2.56458096   -4.44198451    5.30703898    f      9.000     0
         -2.90994879    5.04017915    9.65013893    f      9.000     0
         -5.47160393    9.47709601    9.40663768    f      9.000     0
         -6.65606662   11.52864556    4.82298142    f      9.000     0
         -5.29334333    9.16833958    0.50315811    f      9.000     0
         -5.29334333   -9.16833958    0.50315811    f      9.000     0
         -6.65606662  -11.52864556    4.82298142    f      9.000     0
         -5.47160393   -9.47709601    9.40663768    f      9.000     0
         -2.90994879   -5.04017915    9.65013893    f      9.000     0
         10.58668665    0.00000000    0.50315811    f      9.000     0
         13.31213324    0.00000000    4.82298142    f      9.000     0
         10.94320787    0.00000000    9.40663768    f      9.000     0
          5.81989758    0.00000000    9.65013893    f      9.000     0
         -2.31430977    4.00850211   -0.59311698    i     53.000     0
         -2.31430977   -4.00850211   -0.59311698    i     53.000     0
          4.62861954    0.00000000   -0.59311698    i     53.000     0
 
       center of nuclear mass  :   -0.00000000    0.00000000    3.08585308
       center of nuclear charge:   -0.00000000   -0.00000000    3.29984425

              +--------------------------------------------------+
              |               basis set information              |
              +--------------------------------------------------+

              we will work with the 1s 3p 5d 7f 9g ... basis set
              ...i.e. with spherical basis functions...

   type   atoms  prim   cont   basis
   ---------------------------------------------------------------------------
    c       24     50     30   cc-pVTZ   [4s3p2d1f|18s5p2d1f]
    f       15     50     30   cc-pVTZ   [4s3p2d1f|18s5p2d1f]
    i        3    133     39   cc-pVTZ-PP   [5s4p3d1f|21s20p9d1f]
   ---------------------------------------------------------------------------
   total:   42   2349   1287
   ---------------------------------------------------------------------------

   total number of primitive shells          :  103
   total number of contracted shells         :  429
   total number of cartesian basis functions : 1500
   total number of SCF-basis functions       : 1287


 integral neglect threshold       :  0.22E-13
 integral storage threshold THIZE :  0.10E-04
 integral storage threshold THIME :         5

 number of unique ecp types :           1
 RI-J AUXILIARY BASIS SET information:

              we will work with the 1s 3p 5d 7f 9g ... basis set
              ...i.e. with spherical basis functions...

   type   atoms  prim   cont   basis
   ---------------------------------------------------------------------------
    c       24     70     49   cc-pVTZ   [6s4p3d1f1g|12s5p4d2f1g]
    f       15     70     49   cc-pVTZ   [6s4p3d1f1g|12s5p4d2f1g]
    i        3    160    140   universal_jkbas   [11s10p10d7f|13s12p11d8f]
   ---------------------------------------------------------------------------
   total:   42   3210   2331
   ---------------------------------------------------------------------------

   total number of primitive shells          :   92
   total number of contracted shells         :  699
   total number of cartesian basis functions : 2892
   total number of SCF-basis functions       : 2331


 symmetry group of the molecule :   c1 

 the group has the following generators :
   c1(z)

    1 symmetry operations found

 there are 1 real representations :   a   

 maximum number of shells which are related by symmetry :  1


    mo occupation :
   irrep   mo's   occupied
    a     1287      177
 
 number of basis functions   :         1287
 number of occupied orbitals :          177
 
  
           ------------------
           density functional
           ------------------
 TPSS meta-GGA functional
 exchange:    LDA + TPSS
 correlation: LDA (PW) + TPSS
 grinp -> nfun, dfgga, dfhybrid 
           5 F F
 iterations will be done with small grid
  
 spherical integration : Lebedev's spherical grid
 spherical gridsize    :           5
    i.e. gridpoints    :         590
 value for diffuse not defined
 radial integration    : Chebyshev 2nd kind (scaling 3)
 radial gridsize       :           8
 integration cells     :          42
 partition function    : becke
 partition sharpness   :           3
  

 <rddim> : input of entry tasksize
           from data group '$pardft' failed !

               Default values taken

 <rddim> : input of entry memdiv
           from data group '$pardft' failed !

               Default values taken
  RIDFT: memory allocation for DFT gridpoints
  MEMORY is divided by 1 as DEFAULT
 Each node can hold at most  the            1 -th part
 of the gridpoints    

 biggest AO integral is expected to be     5.499692413
  
           ------------------------
               RI-J - INFORMATION
           ------------------------
 
 
 **************************************************
 *      MEMORY ALLOCATION FOR PARALLEL RI-DFT     *
 **************************************************
 
 
MEMORY FOR (MU NU/ ALPHA), SEQUENTIAL RUN              17957 MByte
 
            DIFFERENCE IN MEMORY NEED:       DIAG./SLAVE  
 
      TOTAL DIFFERENCE :                    110 MByte
 
      difference in xcore:                   44 MByte
      difference in fatmat:                  24 MByte
      getcor calls skipped by slaves:        43 MByte
 
 
           Integral memory available for diagonal.     17957 MByte
 
           Integral memory available for slave             0 MByte
 
         MEMORY FOR (MU NU/ ALPHA) ON DIAGONALIZER     17957 MByte
 
         MEMORY FOR (MU NU/ ALPHA) ON ONE SLAVE            0 MByte
 
         TOTAL MEMORY FOR (MU NU/ ALPHA),ALL NODES     17957 MByte
 
 Contributions to RI integral batches: 
  neglected integral batches:       45224
  direct contribution:                  0
  memory contribution:       47011
 Memory core needed for (P|Q) and Cholesky     42 MByte
 Memory core minimum needed except of (P|Q)     7 MByte
 Total minimum memory core needed (sum)        48 MByte
  
 ****************************************
 Memory allocated for RI-J 18004 MByte
 ****************************************
                                            

          ------------------------
          nuclear repulsion energy  :   6675.49755796    
          ------------------------

 
          -----------------
          -S integrals
          -----------------

 1e-integrals will be neglected if expon. factor < 0.222797E-14
 
          -----------------
          -T+V integrals
          -----------------

 1e-integrals will be neglected if expon. factor < 0.222797E-14
 
           ----------------
           -ecp-  integrals
           ----------------
 Difference densities >>NOT<< switched on in parallel ridft!

 automatic virtual orbital shift switched on 
      shift if e(lumo)-e(homo) < 0.10000000    


 DIIS switched on: error vector is FDS-SDF
 Max. Iterations for DIIS is     :   4
 DIIS matrix (see manual) 
    Scaling factor of diagonals  :  1.200
    threshold for scaling factor :  0.000

 scf convergence criterion : increment of total energy < .1000000D-08
                  and increment of one-electron energy < .1000000D-05

  MOs are in ASCII format !


 reading orbital data $scfmo  from file mos . 

 orbital characterization : scfconv=9
 

 DSCF restart information will be dumped onto file mos


 Starting SCF iterations


 ITERATION  ENERGY          1e-ENERGY        2e-ENERGY     RMS[dD(SAO)]   TOL
   1  -3300.0032160100    -18183.144980     8207.6442065    0.000D+00 0.222D-13
                            Exc = -353.465671873     Coul =  8561.10987838    
                              N = 354.00001555    
                            current damping = 0.700
 
          max. resid. norm for Fia-block=  6.657D-04 for orbital     52a         
          max. resid. fock norm         =  1.058D-03 for orbital     53a         

 ITERATION  ENERGY          1e-ENERGY        2e-ENERGY     RMS[dD(SAO)]   TOL
   2  -3300.0032183516    -18183.146386     8207.6456100    0.152D-04 0.222D-13
                            Exc = -353.465549235     Coul =  8561.11115924    
                              N = 354.00001557    
                            current damping = 0.650
 
          Norm of current diis error: 0.14805E-02
          max. resid. norm for Fia-block=  2.764D-04 for orbital     52a         
          max. resid. fock norm         =  4.394D-04 for orbital     54a         

 ITERATION  ENERGY          1e-ENERGY        2e-ENERGY     RMS[dD(SAO)]   TOL
   3  -3300.0032187629    -18183.146315     8207.6455384    0.673D-05 0.222D-13
                            Exc = -353.465472687     Coul =  8561.11101113    
                              N = 354.00001559    
                            current damping = 0.600
 
          Norm of current diis error: 0.60283E-03
          max. resid. norm for Fia-block=  1.140D-04 for orbital     52a         
          max. resid. fock norm         =  1.703D-04 for orbital     53a         

 ITERATION  ENERGY          1e-ENERGY        2e-ENERGY     RMS[dD(SAO)]   TOL
   4  -3300.0032188283    -18183.147181     8207.6464037    0.278D-05 0.222D-13
                            Exc = -353.465463066     Coul =  8561.11186681    
                              N = 354.00001559    
                            current damping = 0.650
 
          Norm of current diis error: 0.33109E-03
          max. resid. norm for Fia-block=  4.048D-05 for orbital     52a         
          max. resid. fock norm         =  6.523D-05 for orbital     54a         

 ITERATION  ENERGY          1e-ENERGY        2e-ENERGY     RMS[dD(SAO)]   TOL
   5  -3300.0032188409    -18183.146446     8207.6456696    0.105D-05 0.222D-13
                            Exc = -353.465472108     Coul =  8561.11114168    
                              N = 354.00001559    
                            current damping = 0.700
 
          Norm of current diis error: 0.15734E-03
          max. resid. norm for Fia-block=  1.677D-05 for orbital     53a         
          max. resid. fock norm         =  2.546D-05 for orbital     53a         
          mo-orthogonalization: Cholesky decomposition

 ITERATION  ENERGY          1e-ENERGY        2e-ENERGY     RMS[dD(SAO)]   TOL
   6  -3300.0032188431    -18183.146924     8207.6461471    0.420D-06 0.222D-13
                            Exc = -353.465443675     Coul =  8561.11159073    
                              N = 354.00001559    
                            current damping = 0.750
 
          Norm of current diis error: 0.65117E-04
          max. resid. norm for Fia-block=  7.084D-06 for orbital     52a         
          max. resid. fock norm         =  1.044D-05 for orbital     53a         

 ITERATION  ENERGY          1e-ENERGY        2e-ENERGY     RMS[dD(SAO)]   TOL
   7  -3300.0032188436    -18183.146750     8207.6459728    0.157D-06 0.222D-13
                            Exc = -353.465448770     Coul =  8561.11142156    
                              N = 354.00001559    
                            current damping = 0.800
 
          Norm of current diis error: 0.20484E-04
          max. resid. norm for Fia-block=  3.042D-06 for orbital     53a         
          max. resid. fock norm         =  4.369D-06 for orbital     52a         

 DENSITY CONVERGED !


 ITERATION  ENERGY          1e-ENERGY        2e-ENERGY     RMS[dD(SAO)]   TOL
   8  -3300.0032188433    -18183.146858     8207.6460808    0.700D-07 0.222D-13
                            Exc = -353.465452105     Coul =  8561.11153286    
                              N = 354.00001560    
                            current damping = 0.850
 
          Norm of current diis error: 0.13868E-04
          max. resid. norm for Fia-block=  1.255D-06 for orbital     52a         
          max. resid. fock norm         =  2.021D-06 for orbital     54a         

 DENSITY CONVERGED !


 ITERATION  ENERGY          1e-ENERGY        2e-ENERGY     RMS[dD(SAO)]   TOL
   9  -3300.0032188435    -18183.146809     8207.6460321    0.304D-07 0.222D-13
                            Exc = -353.465450849     Coul =  8561.11148293    
                              N = 354.00001560    
                            current damping = 0.900
 
          Norm of current diis error: 0.73349E-05
          max. resid. norm for Fia-block=  6.359D-07 for orbital     53a         
          max. resid. fock norm         =  9.292D-07 for orbital     53a         

 ENERGY & DENSITY CONVERGED !


 ITERATION  ENERGY          1e-ENERGY        2e-ENERGY     RMS[dD(SAO)]   TOL
  10  -3300.0028632303    -18183.146819     8207.6463974    0.141D-07 0.222D-13
                            Exc = -353.465093591     Coul =  8561.11149102    
                              N = 353.99998824    
                            current damping = 0.950
 
          Norm of current diis error: 0.39979E-05
          max. resid. norm for Fia-block=  3.040D-07 for orbital     52a         
          max. resid. fock norm         =  4.440D-07 for orbital     54a         

 End of SCF iterations

   convergence criteria satisfied after   10 iterations


                  ------------------------------------------ 
                 |  total energy      =  -3300.00286323033  |
                  ------------------------------------------ 
                 :  kinetic energy    =   2732.95970880255  :
                 :  potential energy  =  -6032.96257203288  :
                 :  virial theorem    =      1.82816889017  :
                 :  wavefunction norm =      1.00000000000  :
                  .......................................... 


 orbitals $scfmo  will be written to file mos

    irrep                173a        174a        175a        176a        177a   
 eigenvalues H         -0.24659    -0.24659    -0.23889    -0.23889    -0.23295
            eV          -6.7102     -6.7102     -6.5007     -6.5006     -6.3390
 occupation              2.0000      2.0000      2.0000      2.0000      2.0000 

    irrep                178a        179a        180a        181a        182a   
 eigenvalues H         -0.11049    -0.09172    -0.09171    -0.08302    -0.08301
            eV          -3.0067     -2.4958     -2.4957     -2.2590     -2.2590
 
 
 ! grave: sending quit signal to master process
 
 
 
 
 ==============================================================================
                           electrostatic moments
 ==============================================================================

 reference point for electrostatic moments:    0.00000   0.00000   0.00000

 
              nuc           elec       ->  total
 ------------------------------------------------------------------------------
                          charge      
 ------------------------------------------------------------------------------
         354.000000    -354.000000      -0.000000
 
 ------------------------------------------------------------------------------
                       dipole moment  
 ------------------------------------------------------------------------------
   x      -0.000000      -0.000151      -0.000151
   y       0.000000      -0.000000      -0.000000
   z    1495.153607   -1495.598993      -0.445386
 
   | dipole moment | =     0.4454 a.u. =     1.1321 debye 
 
 ------------------------------------------------------------------------------
                     quadrupole moment
 ------------------------------------------------------------------------------
  xx   11030.127188  -11250.452805    -220.325617
  yy   11030.127188  -11250.448709    -220.321521
  zz   10482.941770  -10702.712287    -219.770517
  xy      -0.000000       0.000000       0.000000
  xz      -0.000000      -0.000714      -0.000714
  yz       0.000000       0.000000       0.000000
 
     1/3  trace=    -220.139218
     anisotropy=       0.553065
 
 ==============================================================================
 

    ridft profiling
  --------------------------------------------------------------------
             module   cpu total (s)       %  wall total (s)       %

               RIDFT           567.4  100.00           567.5  100.00
         Ridft_b_scf            60.3   10.63            60.3   10.63
        b_scf_prelim             0.0    0.00             0.0    0.00
        b_scf_molinp             0.0    0.00             0.0    0.00
         b_scf_init0             0.0    0.00             0.0    0.00
        b_scf_auxbas             0.0    0.01             0.0    0.01
      b_scf_symmetry             0.0    0.00             0.0    0.00
         b_scf_cosmo             0.0    0.00             0.0    0.00
        b_scf_params             1.5    0.27             1.5    0.27
          b_scf_ri-j            53.3    9.40            53.3    9.39
    b_scf_ri-j_auxpq            53.3    9.40            53.3    9.39
     ri-j_auxpq_chol             1.9    0.34             1.9    0.34
         b_scf_1elec             1.1    0.19             1.1    0.19
       b_scf_moinput             4.4    0.77             4.4    0.77
     moinput_orthmos             2.5    0.44             2.5    0.44
    b_scf_dft-dstmax             0.0    0.00             0.0    0.00
           Ridft_scf           506.7   89.30           506.8   89.30
          Scf_b_loop             0.0    0.00             0.0    0.00
                noga             0.0    0.00             0.0    0.00
            Scf_loop           505.5   89.09           505.6   89.09
     scf_loop_mkdmat             1.6    0.28             1.6    0.28
       scf_loop_ri-j            27.7    4.88            27.7    4.88
      parlp1.bc.dens             0.6    0.10             0.6    0.10
        parlp1.gs.gp             0.0    0.00             0.0    0.00
        parlp2.bc.gq             0.0    0.00             0.0    0.00
        scf_loop_dft           438.4   77.26           438.4   77.25
      pardft.bc.dens             0.0    0.00             0.0    0.00
        dft_grid_con             1.2    0.20             1.2    0.20
          dft_xcmrhf           428.6   75.54           428.7   75.53
          dft_getval            12.1    2.14            12.2    2.15
          funct2 dst             0.2    0.03             0.2    0.03
      funct2 f2loop1             2.9    0.51             2.9    0.51
      funct2 f2loop2             6.2    1.10             6.3    1.10
          funct2 s+c             2.6    0.45             2.6    0.46
        funct2 cmf_2             2.2    0.39             2.3    0.40
          dft_mkdens           224.2   39.51           224.2   39.50
        dft_mgga-fun             0.6    0.10             0.6    0.10
          dft_mkfock           191.4   33.73           191.4   33.73
     pardft.red.fock            64.1   11.30            64.1   11.30
     scf_loop_energy             0.0    0.00             0.0    0.00
     scf_loop_mkfock             0.0    0.00             0.0    0.00
       scf_loop_diis            16.6    2.93            16.6    2.93
       scf_loop_diag            10.2    1.79            10.2    1.79
         diag_tritrn             2.9    0.52             2.9    0.52
          diag_rdiag             7.2    1.27             7.2    1.27
     scf_loop_modump             9.3    1.64             9.3    1.64
      scf_loop_ortho             1.5    0.26             1.5    0.26
          Scf_a_loop             1.2    0.21             1.2    0.21
         Ridft_a_scf             0.4    0.06             0.4    0.07
         a_scf_fanal             0.3    0.05             0.4    0.06
 


    ------------------------------------------------------------------------
         total  cpu-time :  9 minutes and 29 seconds
         total wall-time :  9 minutes and 29 seconds
    ------------------------------------------------------------------------


   ****  ridft : all done  ****


    2018-01-24 11:17:17.165 

