STARTING dscf ON 64 PROCESSORS!
RUNNING PROGRAM /sopt/TURBOMOLE/7.2.1-official/bin/em64t-unknown-linux-gnu_mpi/dscf_mpi.
PLEASE WAIT UNTIL dscf HAS FINISHED.
Look for the output in slave1.output.
MACHINEFILE is ./hostlist
@@@@@@@@@@@@@@@@@@@@@@@@@@@@@@@@@@@@@@@@@@@@@@@@@@@@@@@@@@@
@    WARNING: REMOTE HOST IDENTIFICATION HAS CHANGED!     @
@@@@@@@@@@@@@@@@@@@@@@@@@@@@@@@@@@@@@@@@@@@@@@@@@@@@@@@@@@@
IT IS POSSIBLE THAT SOMEONE IS DOING SOMETHING NASTY!
Someone could be eavesdropping on you right now (man-in-the-middle attack)!
It is also possible that a host key has just been changed.
The fingerprint for the RSA key sent by the remote host is
SHA256:qxtCMJWsl6kWSKl0FkGcTYaF83wXaHxKoPuYxFB2h9I.
Please contact your system administrator.
Add correct host key in /export/home/bdnguye2/.ssh/known_hosts to get rid of this message.
Offending RSA key in /export/home/bdnguye2/.ssh/known_hosts:282
Password authentication is disabled to avoid man-in-the-middle attacks.
Keyboard-interactive authentication is disabled to avoid man-in-the-middle attacks.
 this is node-proc. number 1 running on node c-14-37.gp.local
 the total number of node-proc. spawned is  65
  parallel platform: MPP or cluster with fast interconnect

   OpenMP run-time library returned nthreads = 28

 dscf (c-14-37.gp.local) : TURBOMOLE V7.2 ( 21471 ) 7 Nov 2017 at 16:15:16
 Copyright (C) 2017 TURBOMOLE GmbH, Karlsruhe


    2018-03-15 11:27:43.725 


 SCF run will be profiled !



                             d s c f - program

                   idea & directorship : reinhart ahlrichs
                   program development : marco haeser
                                         michael baer
                           dft version : oliver treutler
           parallelized version : malte v. arnim, gina corongiu, GMD 


                          quantum chemistry group
                          universitaet  karlsruhe
                                  germany




                          References             
                                                 
          TURBOMOLE:                             
              R. Ahlrichs, M. Baer, M. Haeser, H. Horn, and
              C. Koelmel
              Electronic structure calculations on workstation
              computers: the program system TURBOMOLE
              Chem. Phys. Lett. 162: 165 (1989)
          Density Functional:                              
              O. Treutler and R. Ahlrichs                      
              Efficient Molecular Numerical Integration Schemes
              J. Chem. Phys. 102: 346 (1995)                   
          Parallel Version:                                
              Performance of parallel TURBOMOLE for Density    
              Functional Calculations                          
              M. v. Arnim and R. Ahlrichs                      
              J. Comp. Chem. 19: 1746 (1998)                   
                                         




              +--------------------------------------------------+
              | Atomic coordinate, charge and isotop information |
              +--------------------------------------------------+

                    atomic coordinates            atom    charge  isotop
         -0.91146234    1.48014379    6.17950112    c      6.000     0
          1.20108279    2.43962857    7.46188924    c      6.000     0
          2.37267150    4.68247105    6.75800446    c      6.000     0
          1.37088314    6.01960202    4.73404013    c      6.000     0
         -0.77407086    5.21409544    3.40388024    c      6.000     0
         -1.81240519    2.89055240    4.13269059    c      6.000     0
          2.55798739    8.29870296    3.98605803    o      8.000     0
          4.73319623    7.99617661    2.61822547    c      6.000     0
          6.85567924    7.41352103    3.82898847    n      7.000     0
          8.86501616    7.15678637    2.32861569    c      6.000     0
          8.76412682    7.45544436   -0.27591995    c      6.000     0
          6.65687212    8.05084576   -1.51953967    n      7.000     0
          4.63804444    8.32291983   -0.04927796    c      6.000     0
         11.31330154    6.86498199   -1.35388441    c      6.000     0
         12.81912123    6.27969378    0.75298625    n      7.000     0
         11.48120708    6.35435498    3.04818335    c      6.000     0
         15.39847857    5.28403687    0.52727414    c      6.000     0
         15.39203993    2.46588660    0.03008809    c      6.000     0
         15.02246662    0.76576796    2.02198644    c      6.000     0
         14.93292447   -1.82019145    1.56575125    c      6.000     0
         15.20753142   -2.75793008   -0.89377263    c      6.000     0
         15.56941863   -1.06141372   -2.88366573    c      6.000     0
         15.66225838    1.53162338   -2.42374155    c      6.000     0
         12.35414801    5.83381087    5.10652506    o      8.000     0
         12.03208728    6.84413024   -3.53396498    o      8.000     0
          2.38616550    8.96360537   -1.12895656    o      8.000     0
          1.12001917    7.02419010   -2.46453181    c      6.000     0
          1.93744206    6.39298547   -4.87382818    c      6.000     0
          0.61756193    4.52885825   -6.16958294    c      6.000     0
         -1.47139258    3.27273651   -5.12708979    c      6.000     0
         -2.21500005    4.00197762   -2.69656872    c      6.000     0
         -0.98426379    5.89760365   -1.32031489    c      6.000     0
          2.13431885    1.09097529    9.55165657    o      8.000     0
          4.39041146   -0.16362207    9.19722719    c      6.000     0
          6.50316765    1.08851069    9.33267703    n      7.000     0
          8.69576951   -0.25013139    9.01488861    c      6.000     0
          8.62315943   -2.90849413    8.52616054    c      6.000     0
          6.36171059   -4.15973836    8.38777627    n      7.000     0
          4.31811999   -2.83307746    8.72637379    c      6.000     0
         10.90201827   -4.24921710    8.17242215    c      6.000     0
         13.17334249   -2.97833340    8.33083598    c      6.000     0
         13.24461419   -0.35093936    8.81229616    c      6.000     0
         11.04410795    1.00933326    9.13754321    c      6.000     0
          1.99679730   -4.01261082    8.68340610    o      8.000     0
          0.99757204   -4.59177835    6.28987108    c      6.000     0
          2.06760050   -6.53799815    4.88777472    c      6.000     0
          1.00051052   -7.11156087    2.56140819    c      6.000     0
         -1.10400616   -5.83449891    1.58662610    c      6.000     0
         -2.03906904   -3.82525131    3.03710628    c      6.000     0
         -1.07571222   -3.18558366    5.41858849    c      6.000     0
          2.07355211   -9.07865516    1.09527602    o      8.000     0
          4.25574184   -8.44858994   -0.13194244    c      6.000     0
          6.38090362   -8.29099100    1.18852039    n      7.000     0
          8.38914827   -7.60398131   -0.17383906    c      6.000     0
          8.28900023   -7.12409643   -2.75044141    c      6.000     0
          6.17741735   -7.32594321   -4.11704101    n      7.000     0
          4.15567868   -7.98453277   -2.78519540    c      6.000     0
         11.03297287   -7.16558451    0.73255837    c      6.000     0
         12.37365770   -6.41373501   -1.43840681    n      7.000     0
         10.86491625   -6.34387404   -3.62955360    c      6.000     0
         15.01705326   -5.56993716   -1.38703662    c      6.000     0
         -2.04520847   -1.01875118    7.05188455    c      6.000     0
         -4.91574557   -0.95883115    7.66569912    c      6.000     0
         -6.89216243   -0.85474999    5.55606117    c      6.000     0
         -9.62110878   -0.75973499    6.54923206    c      6.000     0
         -2.18705042   -6.66594634   -0.95086442    c      6.000     0
         -5.07962624   -7.20552096   -1.04631330    c      6.000     0
         -6.95157735   -5.25521946   -0.00412982    c      6.000     0
         -9.69027663   -5.68567349   -0.85825963    c      6.000     0
         11.60846035   -5.75962910   -5.71995342    o      8.000     0
          1.89286685   -8.23676178   -3.99812433    o      8.000     0
          0.70472795   -5.93356496   -4.67387733    c      6.000     0
          1.52246167   -4.66007789   -6.81380105    c      6.000     0
          0.33584061   -2.39953144   -7.44173379    c      6.000     0
         -1.60174846   -1.36099322   -5.96290586    c      6.000     0
         -2.31011092   -2.71602206   -3.80491424    c      6.000     0
         -1.26488760   -5.04908877   -3.14692909    c      6.000     0
         11.93334632   -7.37218600    2.83379554    o      8.000     0
          1.10756782   -1.11797551   -9.64232575    o      8.000     0
          3.46063186   -0.00504987   -9.49659888    c      6.000     0
          5.47963455   -1.36334015   -9.85502623    n      7.000     0
          7.76454372   -0.16168580   -9.63185769    c      6.000     0
          7.88313889    2.47073045   -9.02163145    c      6.000     0
          5.71315184    3.84270958   -8.69070897    n      7.000     0
          3.58242531    2.63966205   -8.92949245    c      6.000     0
         10.25430948    3.65277388   -8.71457689    c      6.000     0
         12.43200024    2.25194286   -9.02368459    c      6.000     0
         12.31641085   -0.34637330   -9.62937014    c      6.000     0
         10.02246410   -1.54904324   -9.92690022    c      6.000     0
         -2.73622499    1.19194645   -6.66970842    c      6.000     0
         -5.66789677    1.33036556   -6.84556257    c      6.000     0
         -7.34529617    0.29666992   -4.72012233    c      6.000     0
        -10.17330238    0.78200130   -5.16687296    c      6.000     0
          1.33399898    3.91579241   -8.64868885    o      8.000     0
         -1.81852146    6.84045271    1.26954988    c      6.000     0
         -4.66774890    7.55063061    1.43258465    c      6.000     0
         -6.67649961    5.52333668    1.92479899    c      6.000     0
         -9.39100941    6.51976568    1.64969513    c      6.000     0
          4.03413118    5.35223575    7.74738379    h      1.000     0
         11.05794958    3.03365959    9.45500594    h      1.000     0
         15.05557639    0.60975569    8.91244040    h      1.000     0
         14.93086034   -4.00545579    8.06839406    h      1.000     0
         10.80757946   -6.25225300    7.75324175    h      1.000     0
          3.70407611   -7.55211901    5.58005643    h      1.000     0
         -3.55553956   -2.69428836    2.26621586    h      1.000     0
          3.05443356   -5.38750430   -7.95864853    h      1.000     0
         -3.70818854   -1.89692967   -2.56134579    h      1.000     0
          9.89625391   -3.55348398  -10.32946555    h      1.000     0
         14.05424091   -1.41749205   -9.83776467    h      1.000     0
         14.25857481    3.15527404   -8.78110916    h      1.000     0
         10.30591036    5.63350455   -8.19312361    h      1.000     0
         -3.81292635    3.05519482   -1.83952492    h      1.000     0
          3.55412808    7.31568181   -5.72251364    h      1.000     0
         16.30581670    6.30475457   -1.01996737    h      1.000     0
         16.35057385    5.72524158    2.30502162    h      1.000     0
         14.77655806    1.47850014    3.93037289    h      1.000     0
         14.62445215   -3.12516469    3.11875137    h      1.000     0
         15.74396353   -1.77239756   -4.80142314    h      1.000     0
         15.90968797    2.84456776   -3.98149549    h      1.000     0
         15.83453116   -6.05756932   -3.21799040    h      1.000     0
         15.94876582   -6.65284097    0.10373184    h      1.000     0
         -3.37020430    2.13940540    3.04315176    h      1.000     0
         -1.17723469   -1.34480321    8.89118254    h      1.000     0
         -1.32907066   -8.50712942   -1.29391829    h      1.000     0
         -2.10190945    1.53424465   -8.60038999    h      1.000     0
         -0.85060096    8.64717536    1.47841224    h      1.000     0
         -5.17772409    0.66010251    8.93255968    h      1.000     0
         -5.30195129   -2.65170348    8.80368474    h      1.000     0
         -5.09777521    8.53527202   -0.33789662    h      1.000     0
         -4.84540370    8.96450157    2.94051282    h      1.000     0
         -6.14072829    3.32763429   -7.15333772    h      1.000     0
         -6.18220014    0.33915981   -8.59060222    h      1.000     0
         -5.52316935   -7.56766434   -3.04108015    h      1.000     0
         -5.38712642   -8.99517362   -0.04928588    h      1.000     0
         -6.58883518    0.78553425    4.33191851    h      1.000     0
         -6.71065982   -2.53251221    4.37050911    h      1.000     0
         -6.40826944   -3.33933152   -0.56328751    h      1.000     0
         -6.89345457   -5.30733108    2.06408431    h      1.000     0
         -6.82236103    1.13173993   -2.89610266    h      1.000     0
         -7.06786461   -1.74545389   -4.54550799    h      1.000     0
         -6.45352851    3.90960322    0.64016696    h      1.000     0
         -6.43517913    4.79332705    3.84511414    h      1.000     0
        -10.29387367    1.67248715    7.97584496    c      6.000     0
         -9.95954519   -2.39325743    7.78840658    h      1.000     0
        -10.89788513   -0.98315747    4.93108627    h      1.000     0
         -9.77412798   -5.68612425   -2.93404514    h      1.000     0
        -10.81948545   -4.06536825   -0.22913358    h      1.000     0
        -10.87821675   -8.12866033    0.14848149    c      6.000     0
        -10.48922098    2.80444396   -5.51579284    h      1.000     0
        -11.18721222    0.32234883   -3.41902946    h      1.000     0
        -11.30171379   -0.74778115   -7.35474744    c      6.000     0
        -10.10673095    7.26293207   -1.05934794    c      6.000     0
         -9.66120974    8.15141944    2.90721966    h      1.000     0
        -10.68440952    5.04566617    2.31925694    h      1.000     0
        -13.08723915    1.82784962    8.75747140    c      6.000     0
         -9.11633303    1.82715785    9.67405804    h      1.000     0
         -9.82804458    3.31236565    6.78850822    h      1.000     0
        -12.90498251    7.97377339   -1.38031749    c      6.000     0
         -8.93904791    8.86103099   -1.67322939    h      1.000     0
         -9.65511886    5.68639179   -2.33312989    h      1.000     0
        -14.17716225   -0.43697851   -7.62465641    c      6.000     0
        -10.39619578   -0.18839993   -9.13308872    h      1.000     0
        -10.85739041   -2.75897069   -7.07535658    h      1.000     0
        -13.69464267   -8.40258414   -0.50752697    c      6.000     0
         -9.84692883   -9.76181266   -0.60439641    h      1.000     0
        -10.65174356   -8.19010888    2.21425417    h      1.000     0
        -14.32302802  -10.30579651    0.02340191    h      1.000     0
        -15.39294554   -6.45117298    0.79863782    c      6.000     0
        -13.93123730   -8.26342406   -2.56583618    h      1.000     0
        -13.33596676    3.44341618   10.03327504    h      1.000     0
        -14.91279808    2.10570412    6.52488270    c      6.000     0
        -13.58131956    0.13597290    9.85458433    h      1.000     0
        -13.17154624    8.79316156   -3.26648494    h      1.000     0
        -14.72731429    5.74340561   -1.06148599    c      6.000     0
        -13.38764143    9.46858252   -0.02270647    h      1.000     0
        -14.78296549   -1.33632573   -9.39189418    h      1.000     0
        -15.68693042   -1.57108516   -5.42700496    c      6.000     0
        -14.62954498    1.58084245   -7.81237229    h      1.000     0
        -16.87063137    2.25670706    7.17774242    h      1.000     0
        -14.47797515    3.81247587    5.43363745    h      1.000     0
        -14.80894265    0.48849547    5.23712354    h      1.000     0
        -16.68809687    6.34063483   -1.34640284    h      1.000     0
        -14.31229795    4.25416804   -2.43891242    h      1.000     0
        -14.60045856    4.90752638    0.82676259    h      1.000     0
        -17.72231241   -1.37147232   -5.74222415    h      1.000     0
        -15.27221132   -3.58986274   -5.21490268    h      1.000     0
        -15.24478868   -0.64588273   -3.62955219    h      1.000     0
        -17.38468037   -6.77496623    0.34016103    h      1.000     0
        -15.18854069   -6.56121307    2.85815773    h      1.000     0
        -14.93089985   -4.51906526    0.22044997    h      1.000     0
          7.50692779    0.49846164    2.36346490    c      0.000     0
          8.62078804    0.33290276   -2.00597125    c      0.000     0
          5.95819788   -0.05647426   -3.01401356    c      0.000     0
          4.67770151    0.14224075    2.00197627    c      0.000     0
          3.96939402   -1.75974743   -0.77643697    s      0.000     0
          8.64833883    1.79137476    0.27536561    o      0.000     0
          3.86277564   -0.88265374    3.59788085    h      0.000     0
          6.00096551   -1.22493620   -4.71658316    h      0.000     0
          5.08432889    1.76184990   -3.46516245    h      0.000     0
          3.72100414    1.96827378    1.84572995    h      0.000     0
          8.44060540   -1.33869743    2.63880990    h      0.000     0
          9.54137452   -1.49520974   -1.65532081    h      0.000     0
          9.75438189    1.40172679   -3.36242583    h      0.000     0
          7.87100102    1.69123866    4.01077685    h      0.000     0
 
       center of nuclear mass  :    2.31326308   -0.04084556   -0.06050156
       center of nuclear charge:    1.71952368   -0.03126294   -0.03761957

              +--------------------------------------------------+
              |               basis set information              |
              +--------------------------------------------------+

              we will work with the 1s 3p 5d 7f 9g ... basis set
              ...i.e. with spherical basis functions...

   type   atoms  prim   cont   basis
   ---------------------------------------------------------------------------
    c       92     77     55   cc-pVQZ   [5s4p3d2f1g|21s6p3d2f1g]
    o       13     77     55   cc-pVQZ   [5s4p3d2f1g|21s6p3d2f1g]
    n       10     77     55   cc-pVQZ   [5s4p3d2f1g|21s6p3d2f1g]
    h       88     32     30   cc-pVQZ   [4s3p2d1f|6s3p2d1f]
    s        1    137     59   cc-pVQZ   [6s5p3d2f1g|42s19p3d2f1g]
   ---------------------------------------------------------------------------
   total:  204  11808   9024
   ---------------------------------------------------------------------------

   total number of primitive shells          :  178
   total number of contracted shells         : 2622
   total number of cartesian basis functions :11204
   total number of SCF-basis functions       : 9024


 integral neglect threshold       :  0.30E-12
 integral storage threshold THIZE :  0.10E-04
 integral storage threshold THIME :         5


 DENSITY CONVERGENCE CHECK SWITCHED ON !
 SCF CONVERGENCE IF RMS(delta[D]) <     0.1000000000E-06


 symmetry group of the molecule :   c1 

 the group has the following generators :
   c1(z)

    1 symmetry operations found

 there are 1 real representations :   a   

 maximum number of shells which are related by symmetry :  1


    mo occupation :
   irrep   mo's   occupied
    a     9024      387
 
 number of basis functions   :                   9024
 number of occupied orbitals :                    387
 

 automatic virtual orbital shift switched on 
      shift if e(lumo)-e(homo) < 0.10000000    


 keyword $2e-ints_shell_statistics missing in file <control>

 ! One task per shell generated
  No pre-computed optimal task distribution found
  ... using automatic task generation

          ------------------------
          nuclear repulsion energy  :   24533.9546571    
          ------------------------


         -----------------
         -S,T+V- integrals
         -----------------

 1e-integrals will be neglected if expon. factor < 0.298283E-13
 
   Difference densities algorithm switched on.
   The maximal number of linear combinations of
   difference densities is                    20 .

 DIIS switched on: error vector is FDS-SDF
 Max. Iterations for DIIS is     :   5
 DIIS matrix (see manual) 
    Scaling factor of diagonals  :  1.200
    threshold for scaling factor :  0.000

 scf convergence criterion : increment of total energy < .1000000D-06
                  and increment of one-electron energy < .1000000D-03

  MOs are in ASCII format !


 reading orbital data $scfmo  from file mos
 orbital characterization : expanded
 mo provided and orthogonalized by Cholesky decomposition

 DSCF restart information will be dumped onto file mos

 
                                              current damping :  0.300
 ITERATION  ENERGY          1e-ENERGY        2e-ENERGY     RMS[dD(SAO)]   TOL
   1  -4805.3739635131    -55353.928645     26014.600024    0.000D+00 0.298D-12
          max. resid. norm for Fia-block=  4.206D-01 for orbital    232a         
          max. resid. fock norm         =  1.248D+01 for orbital   8151a         
          Delta Eig. =  2913.7553681781 eV 
 
                                              current damping :  0.250
 ITERATION  ENERGY          1e-ENERGY        2e-ENERGY     RMS[dD(SAO)]   TOL
   2  -4821.5285236870    -55500.314060     26144.830880    0.636D-02 0.294D-12
          Norm of current diis error:  9.5136    
          max. resid. norm for Fia-block=  1.369D-01 for orbital      9a         
          max. resid. fock norm         =  3.990D-01 for orbital   8884a         
          Delta Eig. =   704.3769410834 eV 
 
                                              current damping :  0.150
 ITERATION  ENERGY          1e-ENERGY        2e-ENERGY     RMS[dD(SAO)]   TOL
   3  -4823.2095827058    -55504.711160     26147.546920    0.136D-02 0.170D-12
          Norm of current diis error:  3.7350    
          max. resid. norm for Fia-block=  5.830D-02 for orbital    368a         
          max. resid. fock norm         =  8.949D-02 for orbital   8872a         
          Delta Eig. =   150.8670303707 eV 
 
                                              current damping :  0.100
 ITERATION  ENERGY          1e-ENERGY        2e-ENERGY     RMS[dD(SAO)]   TOL
   4  -4823.5784445709    -55519.308919     26161.775818    0.452D-03 0.142D-12
          Norm of current diis error:  1.1491    
          max. resid. norm for Fia-block=  2.259D-02 for orbital    122a         
          max. resid. fock norm         =  4.996D-02 for orbital   8527a         
          Delta Eig. =    21.4733070389 eV 
 
                                              current damping :  0.150
 ITERATION  ENERGY          1e-ENERGY        2e-ENERGY     RMS[dD(SAO)]   TOL
   5  -4823.6204901772    -55517.627437     26160.052290    0.212D-03 0.127D-12
          Norm of current diis error: 0.40756    
          max. resid. norm for Fia-block=  7.989D-03 for orbital    368a         
          max. resid. fock norm         =  1.777D-02 for orbital   8940a         
 mo-orthogonalization: Cholesky decomposition
          Delta Eig. =     1.7539323747 eV 
 
                                              current damping :  0.200
 ITERATION  ENERGY          1e-ENERGY        2e-ENERGY     RMS[dD(SAO)]   TOL
   6  -4823.6265258581    -55518.679490     26161.098307    0.712D-04 0.120D-12
          Norm of current diis error: 0.15943    
          max. resid. norm for Fia-block=  4.433D-03 for orbital    372a         
          max. resid. fock norm         =  6.312D-03 for orbital   8934a         
          Delta Eig. =     0.2441604658 eV 
 
                                              current damping :  0.250
 ITERATION  ENERGY          1e-ENERGY        2e-ENERGY     RMS[dD(SAO)]   TOL
   7  -4823.6278326455    -55518.657896     26161.075406    0.307D-04 0.115D-12
          Norm of current diis error: 0.73737E-01
          max. resid. norm for Fia-block=  1.871D-03 for orbital    383a         
          max. resid. fock norm         =  2.539D-03 for orbital    393a         
          Delta Eig. =     0.0913353611 eV 
 
                                              current damping :  0.100
 ITERATION  ENERGY          1e-ENERGY        2e-ENERGY     RMS[dD(SAO)]   TOL
   8  -4823.6281762577    -55518.617745     26161.034911    0.143D-04 0.111D-12
          Norm of current diis error: 0.34821E-01
          max. resid. norm for Fia-block=  1.423D-03 for orbital    372a         
          max. resid. fock norm         =  1.713D-03 for orbital    391a         
          Delta Eig. =     0.0363767766 eV 
 
                                              current damping :  0.150
 ITERATION  ENERGY          1e-ENERGY        2e-ENERGY     RMS[dD(SAO)]   TOL
   9  -4823.6282893959    -55518.678339     26161.095393    0.592D-05 0.107D-12
          Norm of current diis error: 0.18255E-01
          max. resid. norm for Fia-block=  7.316D-04 for orbital    383a         
          max. resid. fock norm         =  8.748D-04 for orbital    393a         
          Delta Eig. =     0.0266765849 eV 
 
                                              current damping :  0.100
 ITERATION  ENERGY          1e-ENERGY        2e-ENERGY     RMS[dD(SAO)]   TOL
  10  -4823.6283168362    -55518.683781     26161.100807    0.205D-05 0.104D-12
          Norm of current diis error: 0.10017E-01
          max. resid. norm for Fia-block=  5.087D-04 for orbital    372a         
          max. resid. fock norm         =  5.564D-04 for orbital    391a         
 mo-orthogonalization: Cholesky decomposition
          Delta Eig. =     0.0119330046 eV 
 
                                              current damping :  0.150
 ITERATION  ENERGY          1e-ENERGY        2e-ENERGY     RMS[dD(SAO)]   TOL
  11  -4823.6283269736    -55518.676254     26161.093270    0.125D-05 0.997D-13
          Norm of current diis error: 0.51800E-02
          max. resid. norm for Fia-block=  3.062D-04 for orbital    383a         
          max. resid. fock norm         =  3.158D-04 for orbital    392a         
          Delta Eig. =     0.0070174533 eV 
 
                                              current damping :  0.200
 ITERATION  ENERGY          1e-ENERGY        2e-ENERGY     RMS[dD(SAO)]   TOL
  12  -4823.6283296623    -55518.694723     26161.111737    0.620D-06 0.966D-13
          Norm of current diis error: 0.27741E-02
          max. resid. norm for Fia-block=  1.647D-04 for orbital    373a         
          max. resid. fock norm         =  1.737D-04 for orbital    391a         
          Delta Eig. =     0.0036377742 eV 
 
                                              current damping :  0.250
 ITERATION  ENERGY          1e-ENERGY        2e-ENERGY     RMS[dD(SAO)]   TOL
  13  -4823.6283304199    -55518.688807     26161.105820    0.328D-06 0.940D-13
          Norm of current diis error: 0.13692E-02
          max. resid. norm for Fia-block=  9.586D-05 for orbital    383a         
          max. resid. fock norm         =  9.615D-05 for orbital    383a         
          Delta Eig. =     0.0018776207 eV 
 
                                              current damping :  0.300
 ITERATION  ENERGY          1e-ENERGY        2e-ENERGY     RMS[dD(SAO)]   TOL
  14  -4823.6283306242    -55518.689939     26161.106951    0.183D-06 0.915D-13
          Norm of current diis error: 0.63643E-03
          max. resid. norm for Fia-block=  4.214D-05 for orbital    387a         
          max. resid. fock norm         =  4.220D-05 for orbital    387a         
          Delta Eig. =     0.0006672092 eV 

 DENSITY CONVERGED !

 
                                              current damping :  0.150
 ITERATION  ENERGY          1e-ENERGY        2e-ENERGY     RMS[dD(SAO)]   TOL
  15  -4823.6283306607    -55518.690963     26161.107975    0.710D-07 0.893D-13
          Norm of current diis error: 0.34438E-03
          max. resid. norm for Fia-block=  2.675D-05 for orbital    387a         
          max. resid. fock norm         =  2.689D-05 for orbital    387a         
 mo-orthogonalization: Cholesky decomposition
          Delta Eig. =     0.0003301117 eV 

 DENSITY CONVERGED !

 
                                              current damping :  0.200
 ITERATION  ENERGY          1e-ENERGY        2e-ENERGY     RMS[dD(SAO)]   TOL
  16  -4823.6283306752    -55518.690379     26161.107391    0.553D-07 0.865D-13
          Norm of current diis error: 0.15890E-03
          max. resid. norm for Fia-block=  8.370D-06 for orbital    387a         
          max. resid. fock norm         =  8.565D-06 for orbital    393a         
          Delta Eig. =     0.0001712136 eV 

 ENERGY & DENSITY CONVERGED !

 
                                              current damping :  0.250
 ITERATION  ENERGY          1e-ENERGY        2e-ENERGY     RMS[dD(SAO)]   TOL
  17  -4823.6283306770    -55518.690534     26161.107546    0.314D-07 0.848D-13
          max. resid. norm for Fia-block=  2.075D-06 for orbital    371a         
          max. resid. fock norm         =  6.915D-06 for orbital   1879a         

 convergence criteria satisfied after    17 iterations


                  ------------------------------------------ 
                 |  total energy      =  -4823.62833067701  |
                  ------------------------------------------ 
                 :  kinetic energy    =   4816.78741656498  :
                 :  potential energy  =  -9640.41574724199  :
                 :  virial theorem    =      1.99858179079  :
                 :  wavefunction norm =      1.00000000000  :
                  .......................................... 


 <geterg> : there is no data group $energy 


 <skperg> : $end is missing 


 orbitals $scfmo  will be written to file mos

    irrep                383a        384a        385a        386a        387a   
 eigenvalues H         -0.32738    -0.32430    -0.32308    -0.32287    -0.31909
            eV          -8.9086     -8.8246     -8.7916     -8.7858     -8.6829
 occupation              2.0000      2.0000      2.0000      2.0000      2.0000 

    irrep                388a        389a        390a        391a        392a   
 eigenvalues H          0.02834     0.02882     0.03280     0.03450     0.05191
            eV           0.7711      0.7841      0.8925      0.9388      1.4126
 
 
 
 
 ==============================================================================
                           electrostatic moments
 ==============================================================================

 reference point for electrostatic moments:    0.00000   0.00000   0.00000

 
              nuc           elec       ->  total
 ------------------------------------------------------------------------------
                          charge      
 ------------------------------------------------------------------------------
         774.000000    -774.000000       0.000000
 
 ------------------------------------------------------------------------------
                       dipole moment  
 ------------------------------------------------------------------------------
   x    1330.911330   -1332.293441      -1.382111
   y     -24.197514      24.201016       0.003502
   z     -29.117544      29.157136       0.039592
 
   | dipole moment | =     1.3827 a.u. =     3.5144 debye 
 
 ------------------------------------------------------------------------------
                     quadrupole moment
 ------------------------------------------------------------------------------
  xx   61582.017494  -62028.514309    -446.496814
  yy   20882.405342  -21371.210972    -488.805630
  zz   24445.819454  -24965.914017    -520.094563
  xy    -141.271103     140.730528      -0.540575
  xz    -299.855662     296.955935      -2.899727
  yz     103.668487     -98.515310       5.153177
 
     1/3  trace=    -485.132336
     anisotropy=      64.796593
 
 ==============================================================================
 

    dscf profiling
  --------------------------------------------------------------------
             module   cpu total (s)       %  wall total (s)       %

          dscf.total        322601.5  100.00        123801.3  100.00
        dscf.prepare          3105.6    0.96           556.7    0.45
      prepare.oneint            12.2    0.00             6.8    0.01
     prepare.moinput             5.6    0.00             5.6    0.00
     moinput_orthmos          3084.7    0.96           541.0    0.44
            dscf.scf        319460.9   99.03        123209.4   99.52
             scf.pre             0.0    0.00             0.0    0.00
        scf.makedmat          3195.6    0.99           500.5    0.40
          scf.shloop        223938.1   69.42        112502.3   90.87
          shloop_omp        223887.0   69.40        112451.1   90.83
          scf.symcar            37.6    0.01            37.6    0.03
        scf.makefock          1500.0    0.46           158.0    0.13
          scf.newerg            27.5    0.01             4.3    0.00
          scf.newcnv         31250.9    9.69          1092.0    0.88
           scf.fdiag         48383.9   15.00          1556.3    1.26
         diag_tritrn         18720.8    5.80           590.2    0.48
          diag_rdiag         29514.9    9.15           956.0    0.77
          scf.modump          6147.2    1.91          6189.3    5.00
           ortho_all          4458.5    1.38           768.0    0.62
            scf.post           519.0    0.16           400.2    0.32
        dscf.postscf            35.0    0.01            35.2    0.03
 


    ------------------------------------------------------------------------
         total  cpu-time :   3 days 17 hours 36 minutes and 49 seconds
         total wall-time :   1 days 10 hours 23 minutes and 29 seconds
    ------------------------------------------------------------------------

   ****  dscf : all done  ****


    2018-03-16 21:51:05.338 

c-14-37.gp.local.31ips_report_strays: Process PID=19916 on host IP=10.201.15.25 sent 3855608 stray message(s) and was told so 4118 time(s) (first stray message at 0.1s (0%), last at 123588.2s (100%) into application run)
