
 eiger (gplogin1.local) : TURBOMOLE V7.2 ( 21285 ) 30 Jun 2017 at 11:51:10
 Copyright (C) 2017 TURBOMOLE GmbH, Karlsruhe


    2017-11-10 00:06:09.596 

                                                                                
  
 HOMO-LUMO Separation
   HOMO:   177.   177 a     -0.23481667 H =     -6.38969 eV
   LUMO:   178.   178 a     -0.11163822 H =     -3.03783 eV
   Gap :                    +0.12317845 H =     +3.35186 eV
 
Number of MOs=   3381, Electrons=    354.00, Symmetry: c1   
 
   Nr.   Orbital    Occupation       Energy
  194.   194 a                     +0.014639 H =        +0.398 eV
  193.   193 a                     +0.003277 H =        +0.089 eV
  192.   192 a                     -0.023713 H =        -0.645 eV
  191.   191 a                     -0.035852 H =        -0.976 eV
  190.   190 a                     -0.038056 H =        -1.036 eV
  189.   189 a                     -0.041213 H =        -1.121 eV
  188.   188 a                     -0.065649 H =        -1.786 eV
  187.   187 a                     -0.067847 H =        -1.846 eV
  186.   186 a                     -0.071471 H =        -1.945 eV
  185.   185 a                     -0.075203 H =        -2.046 eV
  184.   184 a                     -0.077796 H =        -2.117 eV
  183.   183 a                     -0.087004 H =        -2.368 eV
  182.   182 a                     -0.090841 H =        -2.472 eV
  181.   181 a                     -0.095034 H =        -2.586 eV
  180.   180 a                     -0.099456 H =        -2.706 eV
  179.   179 a                     -0.106394 H =        -2.895 eV
  178.   178 a                     -0.111638 H =        -3.038 eV
  177.   177 a        2.000        -0.234817 H =        -6.390 eV
  176.   176 a        2.000        -0.238216 H =        -6.482 eV
  175.   175 a        2.000        -0.239734 H =        -6.523 eV
  174.   174 a        2.000        -0.244249 H =        -6.646 eV
  173.   173 a        2.000        -0.246363 H =        -6.704 eV
  172.   172 a        2.000        -0.252637 H =        -6.875 eV
  171.   171 a        2.000        -0.255006 H =        -6.939 eV
  170.   170 a        2.000        -0.256813 H =        -6.988 eV
  169.   169 a        2.000        -0.264017 H =        -7.184 eV
  168.   168 a        2.000        -0.270142 H =        -7.351 eV
  167.   167 a        2.000        -0.274663 H =        -7.474 eV
  166.   166 a        2.000        -0.282773 H =        -7.695 eV
  165.   165 a        2.000        -0.283838 H =        -7.724 eV
  164.   164 a        2.000        -0.285678 H =        -7.774 eV
  163.   163 a        2.000        -0.337973 H =        -9.197 eV
  162.   162 a        2.000        -0.344954 H =        -9.387 eV


    ------------------------------------------------------------------------
         total  cpu-time :   8.18 seconds
         total wall-time :   8.31 seconds
    ------------------------------------------------------------------------

   ****  eiger : all done  ****


    2017-11-10 00:06:17.887 

