
   OpenMP run-time library returned nthreads = 28
 operating system is UNIX !

 dscf (c-16-29) : TURBOMOLE V7.3 ( 22142 ) 4 Jul 2018 at 18:12:42
 Copyright (C) 2018 TURBOMOLE GmbH, Karlsruhe


    2019-04-01 23:06:12.192 



                             d s c f - program

                   idea & directorship : reinhart ahlrichs
                   program development : marco haeser
                                         michael baer
                           dft version : oliver treutler


                          quantum chemistry group
                          universitaet  karlsruhe
                                  germany




                          References             
                                                 
          TURBOMOLE:                             
              R. Ahlrichs, M. Baer, M. Haeser, H. Horn, and
              C. Koelmel
              Electronic structure calculations on workstation
              computers: the program system TURBOMOLE
              Chem. Phys. Lett. 162: 165 (1989)
          Density Functional:                              
              O. Treutler and R. Ahlrichs                      
              Efficient Molecular Numerical Integration Schemes
              J. Chem. Phys. 102: 346 (1995)                   
          Parallel Version:                                
              Performance of parallel TURBOMOLE for Density    
              Functional Calculations                          
              M. v. Arnim and R. Ahlrichs                      
              J. Comp. Chem. 19: 1746 (1998)                   
                                         




              +--------------------------------------------------+
              | Atomic coordinate, charge and isotop information |
              +--------------------------------------------------+

                    atomic coordinates            atom    charge  isotop
          1.18312216   -1.60799188    1.52295994    n      7.000     0
          0.77325684   -3.42323994    1.95473540    h      1.000     0
         -0.81722377   -0.16504076    0.55683381    c      6.000     0
         -2.89273913   -1.11192077    0.23355612    o      8.000     0
         -0.12637471    2.44015652    0.03710929    c      6.000     0
         -1.53019350    3.68838710   -0.74235935    h      1.000     0
          2.23657039    3.24642668    0.54902820    c      6.000     0
          2.83808562    5.16626679    0.20755398    h      1.000     0
          4.03292084    1.67543422    1.54784023    n      7.000     0
          5.77374816    2.31283841    1.97179275    h      1.000     0
          3.59573912   -0.83748588    2.13220021    c      6.000     0
          5.18504248   -2.19949672    3.07758398    o      8.000     0
         -1.17862634   -0.05615881    8.94197459    c      0.000     0
         -3.66691602    1.34467401    9.34802554    c      0.000     0
         -5.00308733    0.17643362   10.39656340    h      0.000     0
         -3.36550553    3.08357079   10.41418071    h      0.000     0
         -4.53186214    1.83883176    7.54304671    h      0.000     0
         -0.01561969   -0.72405969   11.49551889    c      0.000     0
          1.76669852   -1.73009945   11.24837705    h      0.000     0
          0.35669596    0.97620579   12.60063478    h      0.000     0
         -1.28418154   -1.92920798   12.58539339    h      0.000     0
          0.64519422    1.63226958    7.47594567    c      0.000     0
          2.43773264    0.66360596    7.15402327    h      0.000     0
          1.03313647    3.36729602    8.52176995    h      0.000     0
         -0.15301739    2.15853300    5.64770284    h      0.000     0
         -1.67244427   -2.47507325    7.44840140    c      0.000     0
         -2.54878285   -2.05586831    5.62930446    h      0.000     0
          0.08986953   -3.49249976    7.10893727    h      0.000     0
         -2.93952040   -3.72572040    8.48810022    h      0.000     0
 
       center of nuclear mass  :    0.49603995    0.04349379    4.25507757
       center of nuclear charge:    1.58686019    0.16947152    1.22461162

              +--------------------------------------------------+
              |               basis set information              |
              +--------------------------------------------------+

              we will work with the 1s 3p 5d 7f 9g ... basis set
              ...i.e. with spherical basis functions...

   type   atoms  prim   cont   basis
   ---------------------------------------------------------------------------
    n        2     50     30   cc-pVTZ   [4s3p2d1f|18s5p2d1f]
    h       16     16     14   cc-pVTZ   [3s2p1d|5s2p1d]
    c        9     50     30   cc-pVTZ   [4s3p2d1f|18s5p2d1f]
    o        2     50     30   cc-pVTZ   [4s3p2d1f|18s5p2d1f]
   ---------------------------------------------------------------------------
   total:   29    906    614
   ---------------------------------------------------------------------------

   total number of primitive shells          :   86
   total number of contracted shells         :  226
   total number of cartesian basis functions :  695
   total number of SCF-basis functions       :  614


 integral neglect threshold       :  0.48E-13
 integral storage threshold THIZE :  0.10E-04
 integral storage threshold THIME :         5


 DENSITY CONVERGENCE CHECK SWITCHED ON !
 SCF CONVERGENCE IF RMS(delta[D]) <     0.1000000000E-06


 symmetry group of the molecule :   c1 

 the group has the following generators :
   c1(z)

    1 symmetry operations found

 there are 1 real representations :   a   

 maximum number of shells which are related by symmetry :  1


    mo occupation :
   irrep   mo's   occupied
    a      614       29
 
 number of basis functions   :                    614
 number of occupied orbitals :                     29
 

 automatic virtual orbital shift switched on 
      shift if e(lumo)-e(homo) < 0.10000000    


          ------------------------
          nuclear repulsion energy  :   357.127131193    
          ------------------------


         -----------------
         -S,T+V- integrals
         -----------------

 1e-integrals will be neglected if expon. factor < 0.480858E-14
 
   Difference densities algorithm switched on.
   The maximal number of linear combinations of
   difference densities is                    20 .

 DIIS switched on: error vector is FDS-SDF
 Max. Iterations for DIIS is     :   5
 DIIS matrix (see manual) 
    Scaling factor of diagonals  :  1.200
    threshold for scaling factor :  0.000

 scf convergence criterion : increment of total energy < .1000000D-08
                  and increment of one-electron energy < .1000000D-05

  MOs are in ASCII format !


 reading orbital data $scfmo  from file mos
 orbital characterization : scfconv=9

 DSCF restart information will be dumped onto file mos

 
                                              current damping :  0.700
 ITERATION  ENERGY          1e-ENERGY        2e-ENERGY     RMS[dD(SAO)]   TOL
   1  -412.52554015134    -1271.9520784     502.29940702    0.000D+00 0.480D-13
          max. resid. norm for Fia-block=  1.035D-01 for orbital      2a         
          max. resid. fock norm         =  3.100D-01 for orbital    551a         
          Delta Eig. =    28.7456815135 eV 
 
                                              current damping :  0.650
 ITERATION  ENERGY          1e-ENERGY        2e-ENERGY     RMS[dD(SAO)]   TOL
   2  -412.59987110199    -1270.7147661     500.98776385    0.688D-03 0.306D-13
          Norm of current diis error: 0.53812    
          max. resid. norm for Fia-block=  4.658D-02 for orbital      2a         
          max. resid. fock norm         =  1.363D-01 for orbital    576a         
          Delta Eig. =    11.8723191078 eV 
 
                                              current damping :  0.600
 ITERATION  ENERGY          1e-ENERGY        2e-ENERGY     RMS[dD(SAO)]   TOL
   3  -412.61499630878    -1270.8437267     501.10159921    0.310D-03 0.237D-13
          Norm of current diis error: 0.24851    
          max. resid. norm for Fia-block=  2.309D-02 for orbital      2a         
          max. resid. fock norm         =  4.594D-02 for orbital    588a         
          Delta Eig. =     5.6848995927 eV 
 
                                              current damping :  0.650
 ITERATION  ENERGY          1e-ENERGY        2e-ENERGY     RMS[dD(SAO)]   TOL
   4  -412.61892520362    -1270.7906727     501.04461632    0.198D-03 0.207D-13
          Norm of current diis error: 0.10750    
          max. resid. norm for Fia-block=  9.195D-03 for orbital     24a         
          max. resid. fock norm         =  2.266D-02 for orbital    579a         
          Delta Eig. =     1.6864998936 eV 
 
                                              current damping :  0.500
 ITERATION  ENERGY          1e-ENERGY        2e-ENERGY     RMS[dD(SAO)]   TOL
   5  -412.61972070913    -1270.7684645     501.02161256    0.722D-04 0.192D-13
          Norm of current diis error: 0.49025E-01
          max. resid. norm for Fia-block=  4.780D-03 for orbital     24a         
          max. resid. fock norm         =  6.967D-03 for orbital    549a         
 mo-orthogonalization: Cholesky decomposition
          Delta Eig. =     0.8059006304 eV 
 
                                              current damping :  0.350
 ITERATION  ENERGY          1e-ENERGY        2e-ENERGY     RMS[dD(SAO)]   TOL
   6  -412.61992588757    -1270.7599080     501.01285090    0.413D-04 0.179D-13
          Norm of current diis error: 0.21243E-01
          max. resid. norm for Fia-block=  2.218D-03 for orbital     24a         
          max. resid. fock norm         =  2.618D-03 for orbital    583a         
          Delta Eig. =     0.2904938565 eV 
 
                                              current damping :  0.200
 ITERATION  ENERGY          1e-ENERGY        2e-ENERGY     RMS[dD(SAO)]   TOL
   7  -412.61997453193    -1270.7578963     501.01079055    0.204D-04 0.166D-13
          Norm of current diis error: 0.86019E-02
          max. resid. norm for Fia-block=  9.786D-04 for orbital     20a         
          max. resid. fock norm         =  1.075D-03 for orbital     37a         
          Delta Eig. =     0.0876962906 eV 
 
                                              current damping :  0.050
 ITERATION  ENERGY          1e-ENERGY        2e-ENERGY     RMS[dD(SAO)]   TOL
   8  -412.61998458215    -1270.7569097     501.00979389    0.952D-05 0.155D-13
          Norm of current diis error: 0.31106E-02
          max. resid. norm for Fia-block=  3.709D-04 for orbital     20a         
          max. resid. fock norm         =  4.271D-04 for orbital     31a         
          Delta Eig. =     0.0142104438 eV 
 
                                              current damping :  0.100
 ITERATION  ENERGY          1e-ENERGY        2e-ENERGY     RMS[dD(SAO)]   TOL
   9  -412.61998615097    -1270.7571605     501.01004321    0.393D-05 0.145D-13
          Norm of current diis error: 0.94121E-03
          max. resid. norm for Fia-block=  1.012D-04 for orbital     29a         
          max. resid. fock norm         =  1.140D-04 for orbital     31a         
          Delta Eig. =     0.0055686108 eV 
 
                                              current damping :  0.150
 ITERATION  ENERGY          1e-ENERGY        2e-ENERGY     RMS[dD(SAO)]   TOL
  10  -412.61998626600    -1270.7569501     501.00983260    0.111D-05 0.140D-13
          Norm of current diis error: 0.36390E-03
          max. resid. norm for Fia-block=  4.441D-05 for orbital     28a         
          max. resid. fock norm         =  5.456D-05 for orbital     28a         
 mo-orthogonalization: Cholesky decomposition
          Delta Eig. =     0.0026389837 eV 
 
                                              current damping :  0.200
 ITERATION  ENERGY          1e-ENERGY        2e-ENERGY     RMS[dD(SAO)]   TOL
  11  -412.61998627954    -1270.7571342     501.01001669    0.294D-06 0.138D-13
          Norm of current diis error: 0.18301E-03
          max. resid. norm for Fia-block=  1.378D-05 for orbital     27a         
          max. resid. fock norm         =  1.764D-05 for orbital     27a         
          Delta Eig. =     0.0008094492 eV 
 
                                              current damping :  0.250
 ITERATION  ENERGY          1e-ENERGY        2e-ENERGY     RMS[dD(SAO)]   TOL
  12  -412.61998628246    -1270.7571083     501.00999084    0.159D-06 0.135D-13
          Norm of current diis error: 0.62838E-04
          max. resid. norm for Fia-block=  8.049D-06 for orbital     28a         
          max. resid. fock norm         =  8.095D-06 for orbital     28a         
          Delta Eig. =     0.0001391987 eV 

 DENSITY CONVERGED !

 
                                              current damping :  0.300
 ITERATION  ENERGY          1e-ENERGY        2e-ENERGY     RMS[dD(SAO)]   TOL
  13  -412.61998628305    -1270.7571106     501.00999311    0.746D-07 0.132D-13
          Norm of current diis error: 0.30090E-04
          max. resid. norm for Fia-block=  4.521D-06 for orbital     28a         
          max. resid. fock norm         =  4.548D-06 for orbital     28a         
          Delta Eig. =     0.0000621040 eV 

 DENSITY CONVERGED !

 
                                              current damping :  0.150
 ITERATION  ENERGY          1e-ENERGY        2e-ENERGY     RMS[dD(SAO)]   TOL
  14  -412.61998628321    -1270.7571134     501.00999589    0.420D-07 0.137D-13
          Norm of current diis error: 0.13572E-04
          max. resid. norm for Fia-block=  2.227D-06 for orbital     28a         
          max. resid. fock norm         =  2.239D-06 for orbital     28a         
          Delta Eig. =     0.0000411955 eV 

 ENERGY & DENSITY CONVERGED !

 
                                              current damping :  0.050
 ITERATION  ENERGY          1e-ENERGY        2e-ENERGY     RMS[dD(SAO)]   TOL
  15  -412.61998628324    -1270.7571144     501.00999694    0.255D-07 0.137D-13
          max. resid. norm for Fia-block=  3.667D-07 for orbital     24a         
          max. resid. fock norm         =  4.219D-07 for orbital     19a         

 convergence criteria satisfied after    15 iterations


                  ------------------------------------------ 
                 |  total energy      =   -412.61998628324  |
                  ------------------------------------------ 
                 :  kinetic energy    =    411.93681978298  :
                 :  potential energy  =   -824.55680606622  :
                 :  virial theorem    =      1.99834432038  :
                 :  wavefunction norm =      1.00000000000  :
                  .......................................... 


 orbitals $scfmo  will be written to file mos

    irrep                 25a         26a         27a         28a         29a   
 eigenvalues H         -0.52500    -0.48230    -0.44772    -0.43527    -0.36778
            eV         -14.2862    -13.1242    -12.1833    -11.8445    -10.0080
 occupation              2.0000      2.0000      2.0000      2.0000      2.0000 

    irrep                 30a         31a         32a         33a         34a   
 eigenvalues H          0.05693     0.08841     0.10521     0.11676     0.11939
            eV           1.5490      2.4058      2.8629      3.1773      3.2487
 
 
 
 
 ==============================================================================
                           electrostatic moments
 ==============================================================================

 reference point for electrostatic moments:    0.00000   0.00000   0.00000

 
              nuc           elec       ->  total
 ------------------------------------------------------------------------------
                          charge      
 ------------------------------------------------------------------------------
          58.000000     -58.000000      -0.000000
 
 ------------------------------------------------------------------------------
                       dipole moment  
 ------------------------------------------------------------------------------
   x      92.037891     -91.145762       0.892129
   y       9.829348      -8.093705       1.735643
   z      71.027474     -71.273664      -0.246190
 
   | dipole moment | =     1.9670 a.u. =     4.9995 debye 
 
 ------------------------------------------------------------------------------
                     quadrupole moment
 ------------------------------------------------------------------------------
  xx     561.693231    -600.953477     -39.260246
  yy     247.038185    -275.644852     -28.606667
  zz     148.473125    -184.663468     -36.190343
  xy      12.658159      -5.847250       6.810909
  xz     243.794774    -246.472702      -2.677928
  yz     -59.044726      61.024751       1.980025
 
     1/3  trace=     -34.685752
     anisotropy=      16.206739
 
 ==============================================================================
 


    ------------------------------------------------------------------------
         total  cpu-time :  1 hours 32 minutes and 13 seconds
         total wall-time :  4 minutes and 12 seconds
    ------------------------------------------------------------------------

   ****  dscf : all done  ****


    2019-04-01 23:10:24.624 

