
   OpenMP run-time library returned nthreads = 28
 operating system is UNIX !

 dscf (c-16-37) : TURBOMOLE V7.3 ( 22142 ) 4 Jul 2018 at 18:12:42
 Copyright (C) 2018 TURBOMOLE GmbH, Karlsruhe


    2019-04-01 22:15:18.094 



                             d s c f - program

                   idea & directorship : reinhart ahlrichs
                   program development : marco haeser
                                         michael baer
                           dft version : oliver treutler


                          quantum chemistry group
                          universitaet  karlsruhe
                                  germany




                          References             
                                                 
          TURBOMOLE:                             
              R. Ahlrichs, M. Baer, M. Haeser, H. Horn, and
              C. Koelmel
              Electronic structure calculations on workstation
              computers: the program system TURBOMOLE
              Chem. Phys. Lett. 162: 165 (1989)
          Density Functional:                              
              O. Treutler and R. Ahlrichs                      
              Efficient Molecular Numerical Integration Schemes
              J. Chem. Phys. 102: 346 (1995)                   
          Parallel Version:                                
              Performance of parallel TURBOMOLE for Density    
              Functional Calculations                          
              M. v. Arnim and R. Ahlrichs                      
              J. Comp. Chem. 19: 1746 (1998)                   
                                         




              +--------------------------------------------------+
              | Atomic coordinate, charge and isotop information |
              +--------------------------------------------------+

                    atomic coordinates            atom    charge  isotop
         -1.34769142   -0.53658644    6.23141599    n      7.000     0
         -3.03878658   -1.35269017    5.88256596    h      1.000     0
         -1.34720975    2.10489125    6.40718131    c      6.000     0
         -3.31230398    3.29201683    6.19014602    o      8.000     0
          1.14627396    3.16140188    6.83721319    c      6.000     0
          1.33773415    5.17815950    7.01837779    h      1.000     0
          3.16804205    1.61429764    6.97236650    c      6.000     0
          5.06509850    2.31097295    7.25285200    h      1.000     0
          2.94493882   -0.95061491    6.75966901    n      7.000     0
          4.48211008   -2.06968682    6.74423441    h      1.000     0
          0.67642288   -2.17370695    6.33186960    c      6.000     0
          0.50230871   -4.45161699    6.07944135    o      8.000     0
 
       center of nuclear mass  :    0.25948733    0.18958708    6.46149333
       center of nuclear charge:    0.31738105    0.21760082    6.47041565

              +--------------------------------------------------+
              |               basis set information              |
              +--------------------------------------------------+

              we will work with the 1s 3p 5d 7f 9g ... basis set
              ...i.e. with spherical basis functions...

   type   atoms  prim   cont   basis
   ---------------------------------------------------------------------------
    n        2     77     55   cc-pVQZ   [5s4p3d2f1g|21s6p3d2f1g]
    h        4     32     30   cc-pVQZ   [4s3p2d1f|6s3p2d1f]
    c        4     77     55   cc-pVQZ   [5s4p3d2f1g|21s6p3d2f1g]
    o        2     77     55   cc-pVQZ   [5s4p3d2f1g|21s6p3d2f1g]
   ---------------------------------------------------------------------------
   total:   12    744    560
   ---------------------------------------------------------------------------

   total number of primitive shells          :  111
   total number of contracted shells         :  160
   total number of cartesian basis functions :  700
   total number of SCF-basis functions       :  560


 integral neglect threshold       :  0.48E-13
 integral storage threshold THIZE :  0.10E-04
 integral storage threshold THIME :         5


 DENSITY CONVERGENCE CHECK SWITCHED ON !
 SCF CONVERGENCE IF RMS(delta[D]) <     0.1000000000E-06


 symmetry group of the molecule :   c1 

 the group has the following generators :
   c1(z)

    1 symmetry operations found

 there are 1 real representations :   a   

 maximum number of shells which are related by symmetry :  1


    mo occupation :
   irrep   mo's   occupied
    a      560       29
 
 number of basis functions   :                    560
 number of occupied orbitals :                     29
 

 automatic virtual orbital shift switched on 
      shift if e(lumo)-e(homo) < 0.10000000    


          ------------------------
          nuclear repulsion energy  :   357.235655793    
          ------------------------


         -----------------
         -S,T+V- integrals
         -----------------

 1e-integrals will be neglected if expon. factor < 0.477423E-14
 
   Difference densities algorithm switched on.
   The maximal number of linear combinations of
   difference densities is                    20 .

 DIIS switched on: error vector is FDS-SDF
 Max. Iterations for DIIS is     :   5
 DIIS matrix (see manual) 
    Scaling factor of diagonals  :  1.200
    threshold for scaling factor :  0.000

 scf convergence criterion : increment of total energy < .1000000D-08
                  and increment of one-electron energy < .1000000D-05

  MOs are in ASCII format !


 reading orbital data $scfmo  from file mos
 orbital characterization : scfconv=9

 DSCF restart information will be dumped onto file mos

 
                                              current damping :  0.700
 ITERATION  ENERGY          1e-ENERGY        2e-ENERGY     RMS[dD(SAO)]   TOL
   1  -412.55006004622    -1272.1582624     502.37254655    0.000D+00 0.476D-13
          max. resid. norm for Fia-block=  1.159D-01 for orbital      2a         
          max. resid. fock norm         =  2.405D-01 for orbital    558a         
          Delta Eig. =    29.7250560232 eV 
 
                                              current damping :  0.650
 ITERATION  ENERGY          1e-ENERGY        2e-ENERGY     RMS[dD(SAO)]   TOL
   2  -412.62752403547    -1270.9315495     501.06836964    0.136D-02 0.311D-13
          Norm of current diis error: 0.75310    
          max. resid. norm for Fia-block=  5.168D-02 for orbital      2a         
          max. resid. fock norm         =  9.758D-02 for orbital    559a         
          Delta Eig. =    12.9653985924 eV 
 
                                              current damping :  0.600
 ITERATION  ENERGY          1e-ENERGY        2e-ENERGY     RMS[dD(SAO)]   TOL
   3  -412.64330480797    -1271.0688635     501.18990288    0.592D-03 0.236D-13
          Norm of current diis error: 0.34361    
          max. resid. norm for Fia-block=  2.438D-02 for orbital      2a         
          max. resid. fock norm         =  3.759D-02 for orbital    557a         
          Delta Eig. =     5.7202477550 eV 
 
                                              current damping :  0.650
 ITERATION  ENERGY          1e-ENERGY        2e-ENERGY     RMS[dD(SAO)]   TOL
   4  -412.64732785364    -1271.0068171     501.12383346    0.342D-03 0.206D-13
          Norm of current diis error: 0.14893    
          max. resid. norm for Fia-block=  9.392D-03 for orbital     24a         
          max. resid. fock norm         =  1.468D-02 for orbital    560a         
          Delta Eig. =     2.0132754818 eV 
 
                                              current damping :  0.500
 ITERATION  ENERGY          1e-ENERGY        2e-ENERGY     RMS[dD(SAO)]   TOL
   5  -412.64814636337    -1270.9862186     501.10241648    0.117D-03 0.191D-13
          Norm of current diis error: 0.67780E-01
          max. resid. norm for Fia-block=  4.891D-03 for orbital     24a         
          max. resid. fock norm         =  5.494D-03 for orbital    558a         
 mo-orthogonalization: Cholesky decomposition
          Delta Eig. =     0.8134754362 eV 
 
                                              current damping :  0.350
 ITERATION  ENERGY          1e-ENERGY        2e-ENERGY     RMS[dD(SAO)]   TOL
   6  -412.64835956783    -1270.9784864     501.09447104    0.645D-04 0.178D-13
          Norm of current diis error: 0.29473E-01
          max. resid. norm for Fia-block=  2.283D-03 for orbital     24a         
          max. resid. fock norm         =  2.377D-03 for orbital     30a         
          Delta Eig. =     0.3015790242 eV 
 
                                              current damping :  0.200
 ITERATION  ENERGY          1e-ENERGY        2e-ENERGY     RMS[dD(SAO)]   TOL
   7  -412.64841083397    -1270.9767054     501.09263876    0.291D-04 0.165D-13
          Norm of current diis error: 0.11991E-01
          max. resid. norm for Fia-block=  1.008D-03 for orbital     20a         
          max. resid. fock norm         =  1.093D-03 for orbital     30a         
          Delta Eig. =     0.0882437280 eV 
 
                                              current damping :  0.050
 ITERATION  ENERGY          1e-ENERGY        2e-ENERGY     RMS[dD(SAO)]   TOL
   8  -412.64842156295    -1270.9758210     501.09174365    0.123D-04 0.154D-13
          Norm of current diis error: 0.43530E-02
          max. resid. norm for Fia-block=  3.846D-04 for orbital     20a         
          max. resid. fock norm         =  4.437D-04 for orbital     30a         
          Delta Eig. =     0.0193688776 eV 
 
                                              current damping :  0.100
 ITERATION  ENERGY          1e-ENERGY        2e-ENERGY     RMS[dD(SAO)]   TOL
   9  -412.64842325113    -1270.9761523     501.09207329    0.438D-05 0.145D-13
          Norm of current diis error: 0.13170E-02
          max. resid. norm for Fia-block=  1.056D-04 for orbital     29a         
          max. resid. fock norm         =  1.193D-04 for orbital     30a         
          Delta Eig. =     0.0058981882 eV 
 
                                              current damping :  0.150
 ITERATION  ENERGY          1e-ENERGY        2e-ENERGY     RMS[dD(SAO)]   TOL
  10  -412.64842337607    -1270.9759341     501.09185494    0.118D-05 0.140D-13
          Norm of current diis error: 0.52227E-03
          max. resid. norm for Fia-block=  4.690D-05 for orbital     28a         
          max. resid. fock norm         =  5.783D-05 for orbital     28a         
 mo-orthogonalization: Cholesky decomposition
          Delta Eig. =     0.0028608078 eV 
 
                                              current damping :  0.200
 ITERATION  ENERGY          1e-ENERGY        2e-ENERGY     RMS[dD(SAO)]   TOL
  11  -412.64842339120    -1270.9761297     501.09205056    0.307D-06 0.137D-13
          Norm of current diis error: 0.25128E-03
          max. resid. norm for Fia-block=  1.471D-05 for orbital     27a         
          max. resid. fock norm         =  1.882D-05 for orbital     27a         
          Delta Eig. =     0.0008692650 eV 
 
                                              current damping :  0.250
 ITERATION  ENERGY          1e-ENERGY        2e-ENERGY     RMS[dD(SAO)]   TOL
  12  -412.64842339445    -1270.9761075     501.09202832    0.172D-06 0.134D-13
          Norm of current diis error: 0.85263E-04
          max. resid. norm for Fia-block=  8.497D-06 for orbital     28a         
          max. resid. fock norm         =  8.550D-06 for orbital     28a         
          Delta Eig. =     0.0001292551 eV 

 DENSITY CONVERGED !

 
                                              current damping :  0.300
 ITERATION  ENERGY          1e-ENERGY        2e-ENERGY     RMS[dD(SAO)]   TOL
  13  -412.64842339509    -1270.9761112     501.09203202    0.811D-07 0.132D-13
          Norm of current diis error: 0.40974E-04
          max. resid. norm for Fia-block=  4.743D-06 for orbital     28a         
          max. resid. fock norm         =  4.774D-06 for orbital     28a         
          Delta Eig. =     0.0000652415 eV 

 DENSITY CONVERGED !

 
                                              current damping :  0.150
 ITERATION  ENERGY          1e-ENERGY        2e-ENERGY     RMS[dD(SAO)]   TOL
  14  -412.64842339525    -1270.9761153     501.09203615    0.494D-07 0.136D-13
          Norm of current diis error: 0.18490E-04
          max. resid. norm for Fia-block=  2.351D-06 for orbital     28a         
          max. resid. fock norm         =  2.364D-06 for orbital     28a         
          Delta Eig. =     0.0000407933 eV 

 ENERGY & DENSITY CONVERGED !

 
                                              current damping :  0.050
 ITERATION  ENERGY          1e-ENERGY        2e-ENERGY     RMS[dD(SAO)]   TOL
  15  -412.64842339529    -1270.9761169     501.09203772    0.320D-07 0.136D-13
          max. resid. norm for Fia-block=  3.925D-07 for orbital     24a         
          max. resid. fock norm         =  4.348D-07 for orbital     21a         

 convergence criteria satisfied after    15 iterations


                  ------------------------------------------ 
                 |  total energy      =   -412.64842339529  |
                  ------------------------------------------ 
                 :  kinetic energy    =    412.09310349274  :
                 :  potential energy  =   -824.74152688803  :
                 :  virial theorem    =      1.99865425415  :
                 :  wavefunction norm =      1.00000000000  :
                  .......................................... 


 orbitals $scfmo  will be written to file mos

    irrep                 25a         26a         27a         28a         29a   
 eigenvalues H         -0.52651    -0.48381    -0.44918    -0.43683    -0.36930
            eV         -14.3271    -13.1653    -12.2229    -11.8867    -10.0491
 occupation              2.0000      2.0000      2.0000      2.0000      2.0000 

    irrep                 30a         31a         32a         33a         34a   
 eigenvalues H          0.08573     0.08930     0.12889     0.14013     0.16045
            eV           2.3329      2.4300      3.5073      3.8133      4.3660
 
 
 
 
 ==============================================================================
                           electrostatic moments
 ==============================================================================

 reference point for electrostatic moments:    0.00000   0.00000   0.00000

 
              nuc           elec       ->  total
 ------------------------------------------------------------------------------
                          charge      
 ------------------------------------------------------------------------------
          58.000000     -58.000000       0.000000
 
 ------------------------------------------------------------------------------
                       dipole moment  
 ------------------------------------------------------------------------------
   x      18.408101     -16.473345       1.934756
   y      12.620848     -12.272314       0.348533
   z     375.284108    -375.019781       0.264327
 
   | dipole moment | =     1.9836 a.u. =     5.0418 debye 
 
 ------------------------------------------------------------------------------
                     quadrupole moment
 ------------------------------------------------------------------------------
  xx     301.717960    -330.563177     -28.845217
  yy     422.378537    -465.002435     -42.623898
  zz    2434.872124   -2465.921981     -31.049857
  xy     -79.598619      85.426319       5.827699
  xz     152.903705    -139.529463      13.374242
  yz     104.879364    -102.432858       2.446506
 
     1/3  trace=     -34.172991
     anisotropy=      28.649413
 
 ==============================================================================
 


    ------------------------------------------------------------------------
         total  cpu-time :  2 hours  2 minutes and 56 seconds
         total wall-time :  9 minutes and 30 seconds
    ------------------------------------------------------------------------

   ****  dscf : all done  ****


    2019-04-01 22:24:48.370 

