Using OpenMPI from /sopt/mpi/openmpi-1.8.6/intel_15.0.3/bin/mpiexec
STARTING ridft ON 8 PROCESSORS!
RUNNING PROGRAM /modfac/apps/TURBOMOLE/7.0_intel/bin/em64t-unknown-linux-gnu_mpi/ridft_mpi.
PLEASE WAIT UNTIL ridft HAS FINISHED.
Look for the output in slave1.output.
  this is node-proc. number 1 running on node c-9-374.local
  the total number of node-proc. spawned is            8
  parallel platform: MPP, or cluster with fast interconnect

 ridft (c-9-374.local) : TURBOMOLE V7.0( ) 6 Jul 2015 at 19:34:44
 Copyright (C) 2015 TURBOMOLE GmbH, Karlsruhe


    2015-10-18 09:27:04.331 



                                  r i d f t

                        DFT program with RI approximation 
                                for coulomb part 




                                                 
                                 References:     
                                                 
          TURBOMOLE:                             
              R. Ahlrichs, M. Baer, M. Haeser, H. Horn, and
              C. Koelmel
              Electronic structure calculations on workstation
              computers: the program system TURBOMOLE
              Chem. Phys. Lett. 162: 165 (1989)
          Density Functional:                              
              O. Treutler and R. Ahlrichs                      
              Efficient Molecular Numerical Integration Schemes
              J. Chem. Phys. 102: 346 (1995)                   
          Parallel Version:                                
              Performance of parallel TURBOMOLE for Density    
              Functional Calculations                          
              M. v. Arnim and R. Ahlrichs                      
              J. Comp. Chem. 19: 1746 (1998)                   
          RI-J Method:                                     
              Auxiliary Basis Sets to approximate Coulomb      
              Potentials                                       
              Chem. Phys. Lett. 240: 283 (1995)                
              K. Eichkorn, O. Treutler, H. Oehm, M. Haeser     
              and R. Ahlrichs                                  
              Chem. Phys. Lett. 242: 652 (1995)                
                                                           
              Auxiliary Basis Sets for Main Row Atoms and their
              Use to approximate Coulomb Potentials            
              K. Eichkorn, F. Weigend, O. Treutler and         
              R. Ahlrichs                                      
              Theo. Chem. Acc. 97: 119 (1997)                   
                                                           
              Accurate Coulomb-fitting basis sets for H to Rn 
              F. Weigend                                        
              Phys. Chem. Chem. Phys. 8: 1057 (2006)            
                                                           
          Multipole accelerated RI-J (MARI-J):             
              Fast evaluation of the Coulomb potential for     
              electron densities using multipole accelerated   
              resolution of identity approximation             
              M. Sierka, A. Hogekamp and R. Ahlrichs           
              J. Chem. Phys. 118: 9136 (2003)                  
          RI-JK Method:                                     
              A fully direct RI-HF algorithm: Implementation,
              optimised auxiliary basis sets, demonstration of
              accuracy and efficiency                         
              F. Weigend                                      
              Phys. Chem. Chem. Phys. 4: 4285 (2002)           
          Two-component HF and DFT with spin-orbit coupling:  
              Self-consistent treatment of spin-orbit         
              interactions with efficient Hartree-Fock and    
              density functional methods                      
              M. K. Armbruster, F. Weigend, C. van Wüllen and 
              W. Klopper                                      
              Phys. Chem. Chem. Phys. 10: 1748 (2008)         
          Relativistic all-electron 2c calculations           
              An efficient implementation of two-component    
              relativistic exact-decoupling methods for large 
              molecules                                       
              D. Peng, N. Middendorf, F. Weigend, M. Reiher   
              J. Chem. Phys. 138, 184105 (2013)               
                                         


 


              +--------------------------------------------------+
              |      general information about current run       |
              +--------------------------------------------------+

 

 SCF run will be profiled !


 DENSITY CONVERGENCE CHECK SWITCHED ON !
 SCF CONVERGENCE IF RMS(delta[D]) <     0.1000000000E-06

 PBE functional
 exchange:    LDA + PBE
 correlation: LDA (PW) + PBE
 A DFT calculation using the RI-J approximation will be carried out.
 Allocatable memory for RI due to $ricore (MB):        5000


              +--------------------------------------------------+
              | Atomic coordinate, charge and isotop information |
              +--------------------------------------------------+

                    atomic coordinates            atom    charge  isotop
         -0.14463964    5.74559892   -3.37884922    c      6.000     0
         -0.61612631   -5.99222708    3.25881382    c      6.000     0
        -11.09118062   -1.05809546    0.43667791    c      6.000     0
        -10.77578533    0.54255927   -2.00218374    c      6.000     0
         -0.76216434    7.83531477   -5.39467678    c      6.000     0
         -1.28688460   -8.09815678    5.23771613    c      6.000     0
        -13.51191980   -2.65060546    0.28045426    c      6.000     0
        -13.09960045    2.23983569   -2.38974767    c      6.000     0
         -6.78184915   -0.24829112    4.07275666    c      6.000     0
         -5.88636462   -0.31161584   -4.81770560    c      6.000     0
        -15.83543256   -0.97237748   -0.14101136    c      6.000     0
        -15.52803081    0.66406866   -2.51222082    c      6.000     0
          8.53611971    2.91097193   -6.97325951    c      6.000     0
          7.54280406   -2.63913483    7.57060194    c      6.000     0
          6.36234884   -9.42837280   -2.41078032    c      6.000     0
          6.11112865    9.62834362    2.81748718    c      6.000     0
          3.76622418    6.50780106   -1.48398303    c      6.000     0
          3.48764076   -6.53765873    1.72462076    c      6.000     0
         -0.38104438    6.86614983   -0.80205646    c      6.000     0
         -0.55652435   -7.12989890    0.67776917    c      6.000     0
          2.13658106   -5.25547955    3.55141901    c      6.000     0
          2.65825885    5.17286073   -3.43217729    c      6.000     0
          7.88338941    5.44380966   -2.98973571    c      6.000     0
          7.39277871   -5.25670788    3.58545298    c      6.000     0
         -4.84193189   -4.15036771    1.94781631    c      6.000     0
         -4.35666911    3.64773835   -2.47476645    c      6.000     0
          4.19443612    3.97294132   -5.24880882    c      6.000     0
          3.43792206   -3.95090712    5.47245791    c      6.000     0
         -2.66432487   -3.98539462    3.56496835    c      6.000     0
         -2.03725705    3.62988044   -3.89173979    c      6.000     0
          6.13303058   -6.61593119    1.58281571    c      6.000     0
          6.37918630    6.71963936   -1.10395911    c      6.000     0
         -8.50902104    2.09323074   -1.84832223    n      7.000     0
         -8.91366809   -2.70062651    0.77537353    n      7.000     0
          6.83508273    4.12085019   -5.04214837    c      6.000     0
          6.09563290   -3.95625504    5.50668085    c      6.000     0
         -6.29875956    1.83577445   -3.01965008    c      6.000     0
         -6.88192904   -2.39721209    2.22706114    c      6.000     0
         -4.89038446   -6.01889112   -0.12791556    c      6.000     0
         -4.71206991    5.51081935   -0.42526397    c      6.000     0
         -2.58123362   -7.35545662   -0.82363714    c      6.000     0
         -2.55978523    6.97511144    0.48887215    c      6.000     0
          7.61570970    8.13283326    0.91296449    c      6.000     0
          7.60593981   -7.90298587   -0.34729387    c      6.000     0
          1.87385243   -7.76938223    0.01364382    o      8.000     0
          1.93252843    7.63967143    0.07672288    o      8.000     0
          9.91972049   -5.18964150    3.63891333    o      8.000     0
         10.40354707    5.48075381   -2.80085759    o      8.000     0
          2.17938335   -2.68046314    7.27518105    o      8.000     0
          3.17545800    2.66610122   -7.17589484    o      8.000     0
          9.97344541    8.14778099    1.07901472    o      8.000     0
          9.97227378   -7.76664213   -0.32784859    o      8.000     0
         -6.81289735   -6.34781685   -1.49607728    o      8.000     0
         -6.77519731    5.72825124    0.75080709    o      8.000     0
         -2.38846265   -2.45352592    5.35126977    o      8.000     0
         -1.52060593    2.16564505   -5.67832467    o      8.000     0
         10.78015059    6.50379484   -1.20995385    h      1.000     0
         10.48542891   -6.18724682    2.09054733    h      1.000     0
         -8.48685455    3.63105207   -0.58957566    h      1.000     0
         -8.69750232   -4.25651363   -0.44508720    h      1.000     0
          1.30644326    2.45870377   -6.82650337    h      1.000     0
          0.34653798   -2.57053777    6.74031297    h      1.000     0
        -11.24564683    0.23948499    2.03644447    h      1.000     0
        -10.61740738   -0.75401962   -3.60140227    h      1.000     0
         -2.53644711   -8.25935042   -2.66003520    h      1.000     0
         -2.75758286    7.90071819    2.30533360    h      1.000     0
        -13.21105650    3.59333314   -0.81968761    h      1.000     0
        -13.32364638   -4.00499108   -1.28161226    h      1.000     0
        -13.69913496   -3.75367640    2.02113769    h      1.000     0
        -12.84161504    3.34026102   -4.12308007    h      1.000     0
        -16.10519097    0.25360125    1.51255569    h      1.000     0
        -15.46840995   -0.55731803   -4.18984409    h      1.000     0
         -6.53108249   -0.97472074    5.98793740    h      1.000     0
         -4.15730301   -1.31740368   -4.31547308    h      1.000     0
        -17.52813585   -2.15307837   -0.29341778    h      1.000     0
        -17.15895895    1.91724055   -2.74097217    h      1.000     0
         -5.13374340    0.92995313    3.69294060    h      1.000     0
         -7.45774749   -1.63918624   -4.80918293    h      1.000     0
          6.34564366   -1.24542401    8.50682895    h      1.000     0
          7.53586877    1.41744578   -7.98492439    h      1.000     0
         -8.46449909    0.93084130    3.98575367    h      1.000     0
         -5.58969652    0.41273508   -6.72991947    h      1.000     0
          9.22791065   -1.71643825    6.81624216    h      1.000     0
         10.23267804    2.14595410   -6.07911669    h      1.000     0
          7.83231011  -10.14096963   -3.66603090    h      1.000     0
          7.42458280   10.49763654    4.14590796    h      1.000     0
          0.04990767   -9.66165949    5.05760633    h      1.000     0
          0.46156561    9.46936096   -5.08544200    h      1.000     0
          4.78062917    8.41483709    3.82909537    h      1.000     0
          5.01368909   -8.28557982   -3.48027082    h      1.000     0
         -1.14785745   -7.29793335    7.13624838    h      1.000     0
         -0.41141228    7.06561042   -7.27833689    h      1.000     0
         -2.73974384    8.41368435   -5.23573192    h      1.000     0
         -3.20641171   -8.79212091    4.91485642    h      1.000     0
          5.29350084  -11.00364850   -1.59885949    h      1.000     0
          4.98761087   11.08602167    1.87184932    h      1.000     0
          8.76190419    4.19821558   -8.52457348    h      1.000     0
          8.17506863   -4.00000220    9.00087895    h      1.000     0
          6.86066962   -0.25076666   -0.09694295    c      6.000     0
          4.86940850    1.94114558    3.23026006    c      6.000     0
          4.20879804   -0.45650114   -0.46137664    c      6.000     0
          2.95224355    0.97557112    1.62093149    c      6.000     0
          3.45118794   -1.86943047   -2.58206510    c      6.000     0
          7.77932219   -2.63093341   -3.75762593    c      6.000     0
          1.82375579    3.82709226    5.89384794    c      6.000     0
          5.22499827   -2.91924893   -4.23200388    c      6.000     0
          7.39593455    1.24124771    2.23475233    c      6.000     0
          4.35997613    3.34619476    5.36978909    c      6.000     0
          8.66123848   -1.29533168   -1.67119820    c      6.000     0
         -0.10911279    2.94814284    4.35071648    c      6.000     0
          0.43881331    1.52094608    2.20109631    c      6.000     0
          0.80439972   -2.45021890   -3.21332811    n      7.000     0
          9.60630941   -3.78408209   -5.53232443    n      7.000     0
          1.16443035    5.34758481    8.13957958    n      7.000     0
         -0.83206531   -1.89560318   -1.63960198    o      8.000     0
          0.35010956   -3.51392685   -5.23051627    o      8.000     0
         11.85262687   -3.28175509   -5.20935134    o      8.000     0
          2.92111976    6.11630650    9.46543033    o      8.000     0
          8.74843044   -5.15564532   -7.21117603    o      8.000     0
         -1.09723168    5.76691503    8.53587404    o      8.000     0
          9.46318156    1.76254756    3.09975557    o      8.000     0
         -1.08874681    0.86027892    1.03088340    h      1.000     0
          4.58712121   -3.95986442   -5.87111453    h      1.000     0
         -2.04330418    3.38253419    4.85308127    h      1.000     0
         10.66179705   -1.07774861   -1.29376320    h      1.000     0
          5.85758409    4.05157283    6.57549105    h      1.000     0
 
       center of nuclear mass  :    1.05148406    0.00013320    0.07352086
       center of nuclear charge:    0.93676777   -0.00032400    0.06465370

              +--------------------------------------------------+
              |               basis set information              |
              +--------------------------------------------------+

              we will work with the 1s 3p 5d 7f 9g ... basis set
              ...i.e. with spherical basis functions...

   type   atoms  prim   cont   basis
   ---------------------------------------------------------------------------
    c       55     77     57   def2-QZVP   [7s4p3d2f1g|15s8p3d2f1g]
    n        5     77     57   def2-QZVP   [7s4p3d2f1g|15s8p3d2f1g]
    o       19     77     57   def2-QZVP   [7s4p3d2f1g|15s8p3d2f1g]
    h       47     33     30   def2-QZVP   [4s3p2d1f|7s3p2d1f]
   ---------------------------------------------------------------------------
   total:  126   7634   5913
   ---------------------------------------------------------------------------

   total number of primitive shells          :  100
   total number of contracted shells         : 1813
   total number of cartesian basis functions : 7333
   total number of SCF-basis functions       : 5913


 integral neglect threshold       :  0.45E-14
 integral storage threshold THIZE :  0.10E-04
 integral storage threshold THIME :         5

 RI-J AUXILIARY BASIS SET information:

              we will work with the 1s 3p 5d 7f 9g ... basis set
              ...i.e. with spherical basis functions...

   type   atoms  prim   cont   basis
   ---------------------------------------------------------------------------
    c       55     70     49   def2-QZVP   [6s4p3d1f1g|12s5p4d2f1g]
    n        5     70     49   def2-QZVP   [6s4p3d1f1g|12s5p4d2f1g]
    o       19     70     49   def2-QZVP   [6s4p3d1f1g|12s5p4d2f1g]
    h       47     16     11   def2-QZVP   [3s1p1d|5s2p1d]
   ---------------------------------------------------------------------------
   total:  126   6282   4388
   ---------------------------------------------------------------------------

   total number of primitive shells          :   80
   total number of contracted shells         : 1420
   total number of cartesian basis functions : 5383
   total number of SCF-basis functions       : 4388


 symmetry group of the molecule :   c1 

 the group has the following generators :
   c1(z)

    1 symmetry operations found

 there are 1 real representations :   a   

 maximum number of shells which are related by symmetry :  1


    mo occupation :
   irrep   mo's   occupied
    a     5913      282
 
 number of basis functions   :         5913
 number of occupied orbitals :          282
 
  
           ------------------
           density functional
           ------------------
 PBE functional
 exchange:    LDA + PBE
 correlation: LDA (PW) + PBE
 grinp -> nfun, dfgga, dfhybrid 
           6 T F
 iterations will be done with small grid
  
 spherical integration : Lebedev's spherical grid
 spherical gridsize    :           5
    i.e. gridpoints    :         590
 value for diffuse not defined
 radial integration    : Chebyshev 2nd kind (scaling 3)
 radial gridsize       :           8
 integration cells     :         126
 partition function    : becke
 partition sharpness   :           3
  

 <rddim> : input of entry tasksize
           from data group '$pardft' failed !

               Default values taken

 <rddim> : input of entry memdiv
           from data group '$pardft' failed !

               Default values taken
  RIDFT: memory allocation for DFT gridpoints
  MEMORY is divided by 1 as DEFAULT
 Each node can hold at most  the            1 -th part
 of the gridpoints    

 biggest AO integral is expected to be     6.990327543
  
           ------------------------
               RI-J - INFORMATION
           ------------------------
 
 
 **************************************************
 *      MEMORY ALLOCATION FOR PARALLEL RI-DFT     *
 **************************************************
 
 
MEMORY FOR (MU NU/ ALPHA), SEQUENTIAL RUN               4838 MByte
 
            DIFFERENCE IN MEMORY NEED:       DIAG./SLAVE  
 
      TOTAL DIFFERENCE :                   1581 MByte
 
      difference in xcore:                  163 MByte
      difference in fatmat:                 475 MByte
      getcor calls skipped by slaves:       944 MByte
 
 
           Integral memory available for diagonal.      4838 MByte
 
           Integral memory available for slave             0 MByte
 
         MEMORY FOR (MU NU/ ALPHA) ON DIAGONALIZER      4838 MByte
 
         MEMORY FOR (MU NU/ ALPHA) ON ONE SLAVE            0 MByte
 
         TOTAL MEMORY FOR (MU NU/ ALPHA),ALL NODES      4838 MByte
 
 Contributions to RI integral batches: 
  neglected integral batches:     1066080
  direct contribution:             546357
  memory contribution:       31954
 Memory core needed for (P|Q) and Cholesky    147 MByte
 Memory core minimum needed except of (P|Q)    17 MByte
 Total minimum memory core needed (sum)       164 MByte
     number of direct tasks:         160
  
 ****************************************
 Memory allocated for RI-J  5001 MByte
 ****************************************
                                            

          ------------------------
          nuclear repulsion energy  :   15887.6313224    
          ------------------------

 
          -----------------
          -S integrals
          -----------------

 1e-integrals will be neglected if expon. factor < 0.455743E-15
 
          -----------------
          -T+V integrals
          -----------------

 1e-integrals will be neglected if expon. factor < 0.455743E-15
 Difference densities >>NOT<< switched on in parallel ridft!

 automatic virtual orbital shift switched on 
      shift if e(lumo)-e(homo) < 0.10000000    


 DIIS switched on: error vector is FDS-SDF
 Max. Iterations for DIIS is     :   4
 DIIS matrix (see manual) 
    Scaling factor of diagonals  :  1.200
    threshold for scaling factor :  0.000

 scf convergence criterion : increment of total energy < .1000000D-08
                  and increment of one-electron energy < .1000000D-05


 <geterg> : there is no data group $energy 

  MOs are in ASCII format !


 reading orbital data $scfmo  from file mos . 

 orbital characterization : expanded
 
 mo provided and orthogonalized by Cholesky decomposition

 DSCF restart information will be dumped onto file mos


 Starting SCF iterations


 ITERATION  ENERGY          1e-ENERGY        2e-ENERGY     RMS[dD(SAO)]   TOL
   1  -3808.2805639246    -36748.365205     17052.453318    0.000D+00 0.455D-14
                            Exc = -505.075385580     Coul =  17557.5287041    
                              N = 563.99941962    
                            current damping = 0.700
 
          max. resid. norm for Fia-block=  8.044D-01 for orbital     97a         
          max. resid. fock norm         =  5.100D+01 for orbital   5075a         

 ITERATION  ENERGY          1e-ENERGY        2e-ENERGY     RMS[dD(SAO)]   TOL
   2  -3821.7804784034    -36864.471970     17155.060169    0.279D-01 0.455D-14
                            Exc = -506.574016752     Coul =  17661.6341858    
                              N = 563.99950933    
                            current damping = 0.650
 
          Norm of current diis error:  10.143    
          max. resid. norm for Fia-block=  1.658D-01 for orbital     15a         
          max. resid. fock norm         =  4.376D-01 for orbital   5400a         

 ITERATION  ENERGY          1e-ENERGY        2e-ENERGY     RMS[dD(SAO)]   TOL
   3  -3823.5169233344    -36884.361641     17173.213395    0.967D-02 0.455D-14
                            Exc = -509.406042173     Coul =  17682.6194370    
                              N = 563.99957357    
                            current damping = 0.550
 
          Norm of current diis error:  5.1277    
          max. resid. norm for Fia-block=  6.743D-02 for orbital     14a         
          max. resid. fock norm         =  9.733D-02 for orbital    283a         

 ITERATION  ENERGY          1e-ENERGY        2e-ENERGY     RMS[dD(SAO)]   TOL
   4  -3824.1323223068    -36904.141673     17192.378028    0.251D-02 0.455D-14
                            Exc = -508.671280283     Coul =  17701.0493082    
                              N = 563.99956070    
                            current damping = 0.450
 
          Norm of current diis error:  2.5797    
          max. resid. norm for Fia-block=  5.282D-02 for orbital    258a         
          max. resid. fock norm         =  1.011D-01 for orbital   5751a         

 ITERATION  ENERGY          1e-ENERGY        2e-ENERGY     RMS[dD(SAO)]   TOL
   5  -3824.2160115534    -36890.882233     17179.034899    0.111D-02 0.455D-14
                            Exc = -509.591677875     Coul =  17688.6265773    
                              N = 563.99954594    
                            current damping = 0.500
 
          Norm of current diis error:  2.0638    
          max. resid. norm for Fia-block=  4.232D-02 for orbital    255a         
          max. resid. fock norm         =  7.935D-02 for orbital   5449a         
          irrep a   : virtual orbitals shifted by    0.02464
          mo-orthogonalization: Cholesky decomposition

 ITERATION  ENERGY          1e-ENERGY        2e-ENERGY     RMS[dD(SAO)]   TOL
   6  -3824.2994116980    -36904.382644     17192.451910    0.543D-03 0.455D-14
                            Exc = -509.796327973     Coul =  17702.2482376    
                              N = 563.99955397    
                            current damping = 0.550
 
          Norm of current diis error: 0.99224    
          max. resid. norm for Fia-block=  2.099D-02 for orbital    253a         
          max. resid. fock norm         =  4.331D-02 for orbital   5751a         
          irrep a   : virtual orbitals shifted by    0.03251

 ITERATION  ENERGY          1e-ENERGY        2e-ENERGY     RMS[dD(SAO)]   TOL
   7  -3824.3243472524    -36903.654081     17191.698412    0.292D-03 0.455D-14
                            Exc = -509.616898636     Coul =  17701.3153104    
                              N = 563.99954543    
                            current damping = 0.600
 
          Norm of current diis error: 0.38678    
          max. resid. norm for Fia-block=  1.273D-02 for orbital    253a         
          max. resid. fock norm         =  2.247D-02 for orbital   5912a         
          irrep a   : virtual orbitals shifted by    0.03206

 ITERATION  ENERGY          1e-ENERGY        2e-ENERGY     RMS[dD(SAO)]   TOL
   8  -3824.3252572377    -36902.567653     17190.611073    0.162D-03 0.455D-14
                            Exc = -509.545764098     Coul =  17700.1568375    
                              N = 563.99953450    
                            current damping = 0.500
 
          Norm of current diis error: 0.35337    
          max. resid. norm for Fia-block=  4.425D-03 for orbital    264a         
          max. resid. fock norm         =  8.864D-03 for orbital   5751a         
          irrep a   : virtual orbitals shifted by    0.03783

 ITERATION  ENERGY          1e-ENERGY        2e-ENERGY     RMS[dD(SAO)]   TOL
   9  -3824.3285290617    -36902.047751     17190.087899    0.531D-04 0.455D-14
                            Exc = -509.596342416     Coul =  17699.6842415    
                              N = 563.99953511    
                            current damping = 0.400
 
          Norm of current diis error: 0.85749E-01
          max. resid. norm for Fia-block=  1.184D-03 for orbital    258a         
          max. resid. fock norm         =  2.986D-03 for orbital   5897a         
          irrep a   : virtual orbitals shifted by    0.04234

 ITERATION  ENERGY          1e-ENERGY        2e-ENERGY     RMS[dD(SAO)]   TOL
  10  -3824.3286341456    -36902.622464     17190.662508    0.142D-04 0.455D-14
                            Exc = -509.606541781     Coul =  17700.2690495    
                              N = 563.99953578    
                            current damping = 0.450
 
          Norm of current diis error: 0.52727E-01
          max. resid. norm for Fia-block=  1.401D-03 for orbital    258a         
          max. resid. fock norm         =  3.940D-03 for orbital   5895a         
          irrep a   : virtual orbitals shifted by    0.04064
          mo-orthogonalization: Cholesky decomposition

 ITERATION  ENERGY          1e-ENERGY        2e-ENERGY     RMS[dD(SAO)]   TOL
  11  -3824.3286875485    -36902.630583     17190.670573    0.101D-04 0.455D-14
                            Exc = -509.609462381     Coul =  17700.2800353    
                              N = 563.99953544    
                            current damping = 0.300
 
          Norm of current diis error: 0.33032E-01
          max. resid. norm for Fia-block=  7.605D-04 for orbital    258a         
          max. resid. fock norm         =  2.308D-03 for orbital   5896a         
          irrep a   : virtual orbitals shifted by    0.04678

 ITERATION  ENERGY          1e-ENERGY        2e-ENERGY     RMS[dD(SAO)]   TOL
  12  -3824.3287022035    -36902.477841     17190.517817    0.655D-05 0.455D-14
                            Exc = -509.608016698     Coul =  17700.1258335    
                              N = 563.99953494    
                            current damping = 0.350
 
          Norm of current diis error: 0.26043E-01
          max. resid. norm for Fia-block=  5.359D-04 for orbital    253a         
          max. resid. fock norm         =  9.901D-04 for orbital   5751a         
          irrep a   : virtual orbitals shifted by    0.04477

 ITERATION  ENERGY          1e-ENERGY        2e-ENERGY     RMS[dD(SAO)]   TOL
  13  -3824.3287224931    -36902.504502     17190.544457    0.231D-05 0.455D-14
                            Exc = -509.608571813     Coul =  17700.1530289    
                              N = 563.99953483    
                            current damping = 0.400
 
          Norm of current diis error: 0.58308E-02
          max. resid. norm for Fia-block=  1.229D-04 for orbital    164a         
          max. resid. fock norm         =  1.869D-04 for orbital   5750a         
          irrep a   : virtual orbitals shifted by    0.04272

 ITERATION  ENERGY          1e-ENERGY        2e-ENERGY     RMS[dD(SAO)]   TOL
  14  -3824.3287225908    -36902.507450     17190.547405    0.123D-05 0.455D-14
                            Exc = -509.606238750     Coul =  17700.1536437    
                              N = 563.99953466    
                            current damping = 0.250
 
          Norm of current diis error: 0.58943E-02
          max. resid. norm for Fia-block=  6.102D-05 for orbital    274a         
          max. resid. fock norm         =  1.570D-04 for orbital   5729a         
          irrep a   : virtual orbitals shifted by    0.04887

 ITERATION  ENERGY          1e-ENERGY        2e-ENERGY     RMS[dD(SAO)]   TOL
  15  -3824.3287233222    -36902.525744     17190.565699    0.678D-06 0.455D-14
                            Exc = -509.607019820     Coul =  17700.1727186    
                              N = 563.99953468    
                            current damping = 0.100
 
          Norm of current diis error: 0.26219E-02
          max. resid. norm for Fia-block=  7.033D-05 for orbital    258a         
          max. resid. fock norm         =  1.944D-04 for orbital   5895a         
          irrep a   : virtual orbitals shifted by    0.05502
          mo-orthogonalization: Cholesky decomposition

 ITERATION  ENERGY          1e-ENERGY        2e-ENERGY     RMS[dD(SAO)]   TOL
  16  -3824.3287230626    -36902.510053     17190.550007    0.543D-06 0.455D-14
                            Exc = -509.607800474     Coul =  17700.1578078    
                              N = 563.99953465    
                            current damping = 0.150
 
          Norm of current diis error: 0.36021E-02
          max. resid. norm for Fia-block=  5.065D-05 for orbital    258a         
          max. resid. fock norm         =  1.581D-04 for orbital   5895a         
          irrep a   : virtual orbitals shifted by    0.05297

 ITERATION  ENERGY          1e-ENERGY        2e-ENERGY     RMS[dD(SAO)]   TOL
  17  -3824.3287234444    -36902.509887     17190.549841    0.299D-06 0.455D-14
                            Exc = -509.607671442     Coul =  17700.1575123    
                              N = 563.99953463    
                            current damping = 0.050
 
          Norm of current diis error: 0.13488E-02
          max. resid. norm for Fia-block=  3.704D-05 for orbital    253a         
          max. resid. fock norm         =  6.220D-05 for orbital   5751a         
          irrep a   : virtual orbitals shifted by    0.05706

 ITERATION  ENERGY          1e-ENERGY        2e-ENERGY     RMS[dD(SAO)]   TOL
  18  -3824.3287234335    -36902.517367     17190.557321    0.178D-06 0.455D-14
                            Exc = -509.607553539     Coul =  17700.1648744    
                              N = 563.99953462    
                            current damping = 0.100
 
          Norm of current diis error: 0.14211E-02
          max. resid. norm for Fia-block=  2.059D-05 for orbital    253a         
          max. resid. fock norm         =  4.369D-05 for orbital   5751a         
          irrep a   : virtual orbitals shifted by    0.05502

 DENSITY CONVERGED !


 ITERATION  ENERGY          1e-ENERGY        2e-ENERGY     RMS[dD(SAO)]   TOL
  19  -3824.3287234875    -36902.516550     17190.556504    0.968D-07 0.455D-14
                            Exc = -509.607461499     Coul =  17700.1639655    
                              N = 563.99953462    
                            current damping = 0.150
 
          Norm of current diis error: 0.46170E-03
          max. resid. norm for Fia-block=  5.139D-06 for orbital    274a         
          max. resid. fock norm         =  9.034D-06 for orbital   5905a         
          irrep a   : virtual orbitals shifted by    0.05297

 DENSITY CONVERGED !


 ITERATION  ENERGY          1e-ENERGY        2e-ENERGY     RMS[dD(SAO)]   TOL
  20  -3824.3287234914    -36902.515061     17190.555015    0.547D-07 0.455D-14
                            Exc = -509.607457018     Coul =  17700.1624722    
                              N = 563.99953462    
                            current damping = 0.050
 
          Norm of current diis error: 0.27040E-03
          max. resid. norm for Fia-block=  4.379D-06 for orbital    253a         
          max. resid. fock norm         =  8.773D-06 for orbital   5729a         
          irrep a   : virtual orbitals shifted by    0.05706
          mo-orthogonalization: Cholesky decomposition

 DENSITY CONVERGED !


 ITERATION  ENERGY          1e-ENERGY        2e-ENERGY     RMS[dD(SAO)]   TOL
  21  -3824.3287234911    -36902.514964     17190.554918    0.404D-07 0.455D-14
                            Exc = -509.607497430     Coul =  17700.1624154    
                              N = 563.99953462    
                            current damping = 0.050
 
          Norm of current diis error: 0.22780E-03
          max. resid. norm for Fia-block=  3.375D-06 for orbital    258a         
          max. resid. fock norm         =  1.058D-05 for orbital   5896a         
          irrep a   : virtual orbitals shifted by    0.05706

 DENSITY CONVERGED !


 ITERATION  ENERGY          1e-ENERGY        2e-ENERGY     RMS[dD(SAO)]   TOL
  22  -3824.3287234914    -36902.514474     17190.554428    0.262D-07 0.455D-14
                            Exc = -509.607511797     Coul =  17700.1619400    
                              N = 563.99953462    
                            current damping = 0.050
 
          Norm of current diis error: 0.16542E-03
          max. resid. norm for Fia-block=  2.024D-06 for orbital    253a         
          max. resid. fock norm         =  7.940D-06 for orbital   5896a         
          irrep a   : virtual orbitals shifted by    0.05706

 DENSITY CONVERGED !


 ITERATION  ENERGY          1e-ENERGY        2e-ENERGY     RMS[dD(SAO)]   TOL
  23  -3824.3287234931    -36902.515004     17190.554958    0.146D-07 0.455D-14
                            Exc = -509.607497738     Coul =  17700.1624556    
                              N = 563.99953462    
                            current damping = 0.100
 
          Norm of current diis error: 0.63819E-04
          max. resid. norm for Fia-block=  1.850D-06 for orbital    258a         
          max. resid. fock norm         =  6.070D-06 for orbital   5896a         
          irrep a   : virtual orbitals shifted by    0.05502

 DENSITY CONVERGED !


 ITERATION  ENERGY          1e-ENERGY        2e-ENERGY     RMS[dD(SAO)]   TOL
  24  -3824.3287234928    -36902.515420     17190.555374    0.159D-07 0.455D-14
                            Exc = -509.607476752     Coul =  17700.1628503    
                              N = 563.99953462    
                            current damping = 0.050
 
          Norm of current diis error: 0.10606E-03
          max. resid. norm for Fia-block=  1.173D-06 for orbital    274a         
          max. resid. fock norm         =  3.003D-06 for orbital   5895a         
          irrep a   : virtual orbitals shifted by    0.05706

 DENSITY CONVERGED !


 ITERATION  ENERGY          1e-ENERGY        2e-ENERGY     RMS[dD(SAO)]   TOL
  25  -3824.3287234927    -36902.514955     17190.554909    0.109D-07 0.455D-14
                            Exc = -509.607479799     Coul =  17700.1623884    
                              N = 563.99953462    
                            current damping = 0.100
 
          Norm of current diis error: 0.69684E-04
          max. resid. norm for Fia-block=  5.451D-07 for orbital    253a         
          max. resid. fock norm         =  9.304D-07 for orbital   5613a         
          irrep a   : virtual orbitals shifted by    0.05502
          mo-orthogonalization: Cholesky decomposition

 DENSITY CONVERGED !


 ITERATION  ENERGY          1e-ENERGY        2e-ENERGY     RMS[dD(SAO)]   TOL
  26  -3824.3287234930    -36902.515051     17190.555005    0.479D-08 0.455D-14
                            Exc = -509.607485967     Coul =  17700.1624908    
                              N = 563.99953462    
                            current damping = 0.150
 
          Norm of current diis error: 0.19395E-04
          max. resid. norm for Fia-block=  2.195D-07 for orbital    258a         
          max. resid. fock norm         =  5.941D-07 for orbital   5895a         
          irrep a   : virtual orbitals shifted by    0.05297

 ENERGY & DENSITY CONVERGED !


 ITERATION  ENERGY          1e-ENERGY        2e-ENERGY     RMS[dD(SAO)]   TOL
  27  -3824.3288426627    -36902.515052     17190.554887    0.197D-08 0.455D-14
                            Exc = -509.607606488     Coul =  17700.1624933    
                              N = 563.99997139    
                            current damping = 0.200
 
          Norm of current diis error: 0.10086E-04
          max. resid. norm for Fia-block=  4.813D-07 for orbital    253a         
          max. resid. fock norm         =  8.090D-07 for orbital   5751a         

 End of SCF iterations

   convergence criteria satisfied after   27 iterations


                  ------------------------------------------ 
                 |  total energy      =  -3824.32884266269  |
                  ------------------------------------------ 
                 :  kinetic energy    =   3808.84835256812  :
                 :  potential energy  =  -7633.17719523081  :
                 :  virial theorem    =      1.99595210278  :
                 :  wavefunction norm =      1.00000000000  :
                  .......................................... 


 <geterg> : there is no data group $energy 


 <skperg> : $end is missing 


 orbitals $scfmo  will be written to file mos

    irrep                278a        279a        280a        281a        282a   
 eigenvalues H         -0.22653    -0.21818    -0.21727    -0.20501    -0.20226
            eV          -6.1643     -5.9371     -5.9122     -5.5786     -5.5037
 occupation              2.0000      2.0000      2.0000      2.0000      2.0000 

    irrep                283a        284a        285a        286a        287a   
 eigenvalues H         -0.16136    -0.14916    -0.13218    -0.12907    -0.11177
            eV          -4.3909     -4.0588     -3.5968     -3.5122     -3.0414
 
 
 ! grave: sending quit signal to master process
 
 
 
 
 ==============================================================================
                           electrostatic moments
 ==============================================================================

 reference point for electrostatic moments:    0.00000   0.00000   0.00000

 
              nuc           elec       ->  total
 ------------------------------------------------------------------------------
                          charge      
 ------------------------------------------------------------------------------
         564.000000    -564.000000      -0.000000
 
 ------------------------------------------------------------------------------
                       dipole moment  
 ------------------------------------------------------------------------------
   x     528.337021    -534.608453      -6.271432
   y      -0.182737      -0.179979      -0.362715
   z      36.464685     -37.210457      -0.745773
 
   | dipole moment | =     6.3260 a.u. =    16.0792 debye 
 
 ------------------------------------------------------------------------------
                     quadrupole moment
 ------------------------------------------------------------------------------
  xx   26331.900528  -26675.208862    -343.308334
  yy   13809.255218  -14150.117132    -340.861914
  zz    9380.018922   -9743.265712    -363.246790
  xy     -73.878633      76.865167       2.986533
  xz    -141.686945     149.442677       7.755732
  yz    -408.055764     385.250543     -22.805221
 
     1/3  trace=    -349.139012
     anisotropy=      47.114239
 
 ==============================================================================
 

    ridft profiling
  --------------------------------------------------------------------
             module   cpu total (s)       %  wall total (s)       %

               RIDFT         15655.8  100.00         15702.9  100.00
         Ridft_b_scf          4967.4   31.73          4978.5   31.70
        b_scf_prelim             0.0    0.00             0.0    0.00
        b_scf_molinp             0.0    0.00             0.0    0.00
         b_scf_init0             0.0    0.00             0.0    0.00
        b_scf_auxbas             0.0    0.00             0.0    0.00
      b_scf_symmetry             0.0    0.00             0.0    0.00
         b_scf_cosmo             0.0    0.00             0.0    0.00
        b_scf_params          1746.1   11.15          1756.6   11.19
          b_scf_ri-j          3049.6   19.48          3050.2   19.42
    b_scf_ri-j_auxpq          3049.5   19.48          3050.1   19.42
     ri-j_auxpq_chol             7.0    0.04             7.0    0.04
         b_scf_1elec            12.2    0.08            12.2    0.08
       b_scf_moinput           159.5    1.02           159.4    1.02
     moinput_orthmos           158.4    1.01           158.3    1.01
    b_scf_dft-dstmax             0.0    0.00             0.0    0.00
           Ridft_scf         10684.2   68.24         10720.1   68.27
          Scf_b_loop             0.0    0.00             0.0    0.00
                noga             0.0    0.00             0.0    0.00
            Scf_loop         10671.5   68.16         10706.7   68.18
     scf_loop_mkdmat            70.3    0.45            74.4    0.47
       scf_loop_ri-j          3221.1   20.57          3220.2   20.51
      parlp1.bc.dens             4.8    0.03             4.8    0.03
        parlp1.gs.gp            52.2    0.33            52.2    0.33
        parlp2.bc.gq             0.0    0.00             0.0    0.00
        scf_loop_dft          4721.9   30.16          4721.0   30.06
      pardft.bc.dens             0.0    0.00             0.0    0.00
        dft_grid_con             6.2    0.04             6.2    0.04
           dft_xcrhf          4588.7   29.31          4587.7   29.22
          dft_getval           168.8    1.08           169.0    1.08
          funct2 dst             3.7    0.02             3.7    0.02
      funct2 f2loop1            33.5    0.21            33.7    0.21
      funct2 f2loop2            70.3    0.45            70.3    0.45
          funct2 s+c            57.0    0.36            57.2    0.36
        funct2 cmf_2            52.7    0.34            52.8    0.34
          dft_mkdens          1735.4   11.08          1735.1   11.05
         dft_gga-fun             0.8    0.01             0.8    0.01
          dft_mkfock          2678.0   17.11          2677.3   17.05
     pardft.red.fock           342.2    2.19           342.1    2.18
     scf_loop_energy             0.5    0.00             0.5    0.00
     scf_loop_mkfock             0.9    0.01             0.9    0.01
       scf_loop_diis          1281.7    8.19          1289.8    8.21
       scf_loop_diag           779.8    4.98           778.7    4.96
         diag_tritrn           239.4    1.53           238.9    1.52
          diag_rdiag           537.8    3.44           537.3    3.42
     scf_loop_modump           299.6    1.91           325.8    2.07
      scf_loop_ortho           284.2    1.82           284.0    1.81
          Scf_a_loop            12.6    0.08            13.5    0.09
         Ridft_a_scf             4.3    0.03             4.3    0.03
         a_scf_fanal             4.2    0.03             4.2    0.03
 


    ------------------------------------------------------------------------
         total  cpu-time :  4 hours 21 minutes and 20 seconds
         total wall-time :  4 hours 22 minutes and  7 seconds
    ------------------------------------------------------------------------


   ****  ridft : all done  ****


    2015-10-18 13:49:11.163 

