 this is node-proc. number 0 running on node c-17-4.gp.local
 the total number of node-proc. spawned is  17

 dscfserver (c-17-4.gp.local) : TURBOMOLE V7.2 ( 21471 ) 7 Nov 2017 at 16:15:16
 Copyright (C) 2017 TURBOMOLE GmbH, Karlsruhe


    2018-02-18 14:38:53.214 

 
    0:00:01 ---- Start global counter...
    0:00:16 ---- ... finished.
 
    0:00:18 ---- Start global counter...
    0:00:26 ---- ... finished.
 
    0:00:27 ---- Start global counter...
    0:00:34 ---- ... finished.
 
    0:00:36 ---- ByeBye Tag received


 ! Total wall-clock time in seconds  :       35.5
 ! Time (sec) spent in global counter:       29.9
 ! So-called SERIAL wall-clock time  :        5.6

  *** Regular termination of server ***
 total turnaround time of dscfserver    35.70 sec
 cpu elapsed by dscfserver process      29.89 sec 

   ***  dscf server : all done  ***


    2018-02-18 14:39:28.919 

