Using OpenMPI from /sopt/mpi/openmpi-1.8.6/intel_15.0.3/bin/mpiexec
STARTING ridft ON 8 PROCESSORS!
RUNNING PROGRAM /modfac/apps/TURBOMOLE/7.0_intel/bin/em64t-unknown-linux-gnu_mpi/ridft_mpi.
PLEASE WAIT UNTIL ridft HAS FINISHED.
Look for the output in slave1.output.
  this is node-proc. number 1 running on node c-9-333.local
  the total number of node-proc. spawned is            8
  parallel platform: MPP, or cluster with fast interconnect

 ridft (c-9-333.local) : TURBOMOLE V7.0( ) 6 Jul 2015 at 19:34:44
 Copyright (C) 2015 TURBOMOLE GmbH, Karlsruhe


    2015-10-18 11:41:49.679 



                                  r i d f t

                        DFT program with RI approximation 
                                for coulomb part 




                                                 
                                 References:     
                                                 
          TURBOMOLE:                             
              R. Ahlrichs, M. Baer, M. Haeser, H. Horn, and
              C. Koelmel
              Electronic structure calculations on workstation
              computers: the program system TURBOMOLE
              Chem. Phys. Lett. 162: 165 (1989)
          Density Functional:                              
              O. Treutler and R. Ahlrichs                      
              Efficient Molecular Numerical Integration Schemes
              J. Chem. Phys. 102: 346 (1995)                   
          Parallel Version:                                
              Performance of parallel TURBOMOLE for Density    
              Functional Calculations                          
              M. v. Arnim and R. Ahlrichs                      
              J. Comp. Chem. 19: 1746 (1998)                   
          RI-J Method:                                     
              Auxiliary Basis Sets to approximate Coulomb      
              Potentials                                       
              Chem. Phys. Lett. 240: 283 (1995)                
              K. Eichkorn, O. Treutler, H. Oehm, M. Haeser     
              and R. Ahlrichs                                  
              Chem. Phys. Lett. 242: 652 (1995)                
                                                           
              Auxiliary Basis Sets for Main Row Atoms and their
              Use to approximate Coulomb Potentials            
              K. Eichkorn, F. Weigend, O. Treutler and         
              R. Ahlrichs                                      
              Theo. Chem. Acc. 97: 119 (1997)                   
                                                           
              Accurate Coulomb-fitting basis sets for H to Rn 
              F. Weigend                                        
              Phys. Chem. Chem. Phys. 8: 1057 (2006)            
                                                           
          Multipole accelerated RI-J (MARI-J):             
              Fast evaluation of the Coulomb potential for     
              electron densities using multipole accelerated   
              resolution of identity approximation             
              M. Sierka, A. Hogekamp and R. Ahlrichs           
              J. Chem. Phys. 118: 9136 (2003)                  
          RI-JK Method:                                     
              A fully direct RI-HF algorithm: Implementation,
              optimised auxiliary basis sets, demonstration of
              accuracy and efficiency                         
              F. Weigend                                      
              Phys. Chem. Chem. Phys. 4: 4285 (2002)           
          Two-component HF and DFT with spin-orbit coupling:  
              Self-consistent treatment of spin-orbit         
              interactions with efficient Hartree-Fock and    
              density functional methods                      
              M. K. Armbruster, F. Weigend, C. van Wüllen and 
              W. Klopper                                      
              Phys. Chem. Chem. Phys. 10: 1748 (2008)         
          Relativistic all-electron 2c calculations           
              An efficient implementation of two-component    
              relativistic exact-decoupling methods for large 
              molecules                                       
              D. Peng, N. Middendorf, F. Weigend, M. Reiher   
              J. Chem. Phys. 138, 184105 (2013)               
                                         


 


              +--------------------------------------------------+
              |      general information about current run       |
              +--------------------------------------------------+

 

 SCF run will be profiled !


 DENSITY CONVERGENCE CHECK SWITCHED ON !
 SCF CONVERGENCE IF RMS(delta[D]) <     0.1000000000E-06

 PBE functional
 exchange:    LDA + PBE
 correlation: LDA (PW) + PBE
 A DFT calculation using the RI-J approximation will be carried out.
 Allocatable memory for RI due to $ricore (MB):        5000


              +--------------------------------------------------+
              | Atomic coordinate, charge and isotop information |
              +--------------------------------------------------+

                    atomic coordinates            atom    charge  isotop
          5.37744248   -1.46325274   -2.07862316    c      6.000     0
          3.66733481   -0.28338333   -0.32336994    c      6.000     0
          8.94745640    0.29311542    0.09339027    c      6.000     0
          4.69780247    1.19031959    1.67701856    c      6.000     0
          7.27457634    1.46478342    1.82985961    c      6.000     0
          8.04303347   -1.18270400   -1.84153812    c      6.000     0
          3.08554483    2.42769337    3.53216270    n      7.000     0
          4.06423399   -2.74066981   -3.78139868    n      7.000     0
          1.59717763   -2.36162854   -3.10691763    o      8.000     0
          1.31621315   -0.85995767   -0.97341683    n      7.000     0
         10.01530284   -2.64996296   -3.95534797    cl    17.000     0
          0.77949313    2.29407083    3.19187972    o      8.000     0
          4.11616367    3.54291525    5.30899660    o      8.000     0
         10.96385087    0.57485469    0.30209162    h      1.000     0
          8.03451080    2.60855906    3.34882147    h      1.000     0
 
       center of nuclear mass  :    5.27776528   -0.25726803   -0.37634145
       center of nuclear charge:    5.28509005   -0.22160365   -0.32856479

              +--------------------------------------------------+
              |               basis set information              |
              +--------------------------------------------------+

              we will work with the 1s 3p 5d 7f 9g ... basis set
              ...i.e. with spherical basis functions...

   type   atoms  prim   cont   basis
   ---------------------------------------------------------------------------
    c        6     77     57   def2-QZVP   [7s4p3d2f1g|15s8p3d2f1g]
    n        3     77     57   def2-QZVP   [7s4p3d2f1g|15s8p3d2f1g]
    o        3     77     57   def2-QZVP   [7s4p3d2f1g|15s8p3d2f1g]
    cl       1    105     70   def2-QZVP   [9s6p4d2f1g|20s14p4d2f1g]
    h        2     33     30   def2-QZVP   [4s3p2d1f|7s3p2d1f]
   ---------------------------------------------------------------------------
   total:   15   1095    814
   ---------------------------------------------------------------------------

   total number of primitive shells          :  141
   total number of contracted shells         :  246
   total number of cartesian basis functions : 1020
   total number of SCF-basis functions       :  814


 integral neglect threshold       :  0.33E-13
 integral storage threshold THIZE :  0.10E-04
 integral storage threshold THIME :         5

 RI-J AUXILIARY BASIS SET information:

              we will work with the 1s 3p 5d 7f 9g ... basis set
              ...i.e. with spherical basis functions...

   type   atoms  prim   cont   basis
   ---------------------------------------------------------------------------
    c        6     70     49   def2-QZVP   [6s4p3d1f1g|12s5p4d2f1g]
    n        3     70     49   def2-QZVP   [6s4p3d1f1g|12s5p4d2f1g]
    o        3     70     49   def2-QZVP   [6s4p3d1f1g|12s5p4d2f1g]
    cl       1     77     51   def2-QZVP   [8s4p3d1f1g|14s5p5d2f1g]
    h        2     16     11   def2-QZVP   [3s1p1d|5s2p1d]
   ---------------------------------------------------------------------------
   total:   15    949    661
   ---------------------------------------------------------------------------

   total number of primitive shells          :  107
   total number of contracted shells         :  207
   total number of cartesian basis functions :  819
   total number of SCF-basis functions       :  661


 symmetry group of the molecule :   c1 

 the group has the following generators :
   c1(z)

    1 symmetry operations found

 there are 1 real representations :   a   

 maximum number of shells which are related by symmetry :  1


    mo occupation :
   irrep   mo's   occupied
    a      814       50
 
 number of basis functions   :          814
 number of occupied orbitals :           50
 
  
           ------------------
           density functional
           ------------------
 PBE functional
 exchange:    LDA + PBE
 correlation: LDA (PW) + PBE
 grinp -> nfun, dfgga, dfhybrid 
           6 T F
 iterations will be done with small grid
  
 spherical integration : Lebedev's spherical grid
 spherical gridsize    :           5
    i.e. gridpoints    :         590
 value for diffuse not defined
 radial integration    : Chebyshev 2nd kind (scaling 3)
 radial gridsize       :           8
 integration cells     :          15
 partition function    : becke
 partition sharpness   :           3
  

 <rddim> : input of entry tasksize
           from data group '$pardft' failed !

               Default values taken

 <rddim> : input of entry memdiv
           from data group '$pardft' failed !

               Default values taken
  RIDFT: memory allocation for DFT gridpoints
  MEMORY is divided by 1 as DEFAULT
 Each node can hold at most  the            1 -th part
 of the gridpoints    

 biggest AO integral is expected to be    12.165751258
  
           ------------------------
               RI-J - INFORMATION
           ------------------------
 
 
 **************************************************
 *      MEMORY ALLOCATION FOR PARALLEL RI-DFT     *
 **************************************************
 
 
MEMORY FOR (MU NU/ ALPHA), SEQUENTIAL RUN               4997 MByte
 
            DIFFERENCE IN MEMORY NEED:       DIAG./SLAVE  
 
      TOTAL DIFFERENCE :                     31 MByte
 
      difference in xcore:                    4 MByte
      difference in fatmat:                   9 MByte
      getcor calls skipped by slaves:        19 MByte
 
 
           Integral memory available for diagonal.      4997 MByte
 
           Integral memory available for slave             0 MByte
 
         MEMORY FOR (MU NU/ ALPHA) ON DIAGONALIZER      4997 MByte
 
         MEMORY FOR (MU NU/ ALPHA) ON ONE SLAVE            0 MByte
 
         TOTAL MEMORY FOR (MU NU/ ALPHA),ALL NODES      4997 MByte
 
 Contributions to RI integral batches: 
  neglected integral batches:        8055
  direct contribution:                  0
  memory contribution:       22326
 Memory core needed for (P|Q) and Cholesky      4 MByte
 Memory core minimum needed except of (P|Q)     4 MByte
 Total minimum memory core needed (sum)         7 MByte
  
 ****************************************
 Memory allocated for RI-J  5004 MByte
 ****************************************
                                            

          ------------------------
          nuclear repulsion energy  :   847.156780140    
          ------------------------

 
          -----------------
          -S integrals
          -----------------

 1e-integrals will be neglected if expon. factor < 0.327643E-14
 
          -----------------
          -T+V integrals
          -----------------

 1e-integrals will be neglected if expon. factor < 0.327643E-14
 Difference densities >>NOT<< switched on in parallel ridft!

 automatic virtual orbital shift switched on 
      shift if e(lumo)-e(homo) < 0.10000000    


 DIIS switched on: error vector is FDS-SDF
 Max. Iterations for DIIS is     :   4
 DIIS matrix (see manual) 
    Scaling factor of diagonals  :  1.200
    threshold for scaling factor :  0.000

 scf convergence criterion : increment of total energy < .1000000D-08
                  and increment of one-electron energy < .1000000D-05


 <geterg> : there is no data group $energy 

  MOs are in ASCII format !


 reading orbital data $scfmo  from file mos . 

 orbital characterization : expanded
 
 mo provided and orthogonalized by Cholesky decomposition

 DSCF restart information will be dumped onto file mos


 Starting SCF iterations


 ITERATION  ENERGY          1e-ENERGY        2e-ENERGY     RMS[dD(SAO)]   TOL
   1  -1076.4406728237    -3139.0710435     1215.4735906    0.000D+00 0.327D-13
                            Exc = -106.313259277     Coul =  1321.78684983    
                              N = 100.00014529    
                            current damping = 0.700
 
          max. resid. norm for Fia-block=  8.100D-01 for orbital     20a         
          max. resid. fock norm         =  1.034D+02 for orbital    723a         

 ITERATION  ENERGY          1e-ENERGY        2e-ENERGY     RMS[dD(SAO)]   TOL
   2  -1078.8103335285    -3154.9492071     1228.9820934    0.133D-01 0.327D-13
                            Exc = -106.671153349     Coul =  1335.65324674    
                              N = 100.00011832    
                            current damping = 0.650
 
          Norm of current diis error:  3.7522    
          max. resid. norm for Fia-block=  1.541D-01 for orbital     18a         
          max. resid. fock norm         =  4.726D-01 for orbital    725a         

 ITERATION  ENERGY          1e-ENERGY        2e-ENERGY     RMS[dD(SAO)]   TOL
   3  -1079.1136330769    -3159.0200672     1232.7496540    0.528D-02 0.327D-13
                            Exc = -106.993984229     Coul =  1339.74363825    
                              N = 100.00010372    
                            current damping = 0.550
 
          Norm of current diis error:  1.8438    
          max. resid. norm for Fia-block=  6.246D-02 for orbital     41a         
          max. resid. fock norm         =  9.494D-02 for orbital    445a         

 ITERATION  ENERGY          1e-ENERGY        2e-ENERGY     RMS[dD(SAO)]   TOL
   4  -1079.2202702671    -3159.8160347     1233.4389843    0.232D-02 0.327D-13
                            Exc = -106.896980261     Coul =  1340.33596460    
                              N = 100.00010093    
                            current damping = 0.450
 
          Norm of current diis error: 0.83582    
          max. resid. norm for Fia-block=  3.971D-02 for orbital     18a         
          max. resid. fock norm         =  7.780D-02 for orbital    724a         

 ITERATION  ENERGY          1e-ENERGY        2e-ENERGY     RMS[dD(SAO)]   TOL
   5  -1079.2409401185    -3160.4803198     1234.0825995    0.104D-02 0.327D-13
                            Exc = -107.006608298     Coul =  1341.08920779    
                              N = 100.00009733    
                            current damping = 0.350
 
          Norm of current diis error: 0.49247    
          max. resid. norm for Fia-block=  1.143D-02 for orbital     36a         
          max. resid. fock norm         =  3.224D-02 for orbital    803a         
          mo-orthogonalization: Cholesky decomposition

 ITERATION  ENERGY          1e-ENERGY        2e-ENERGY     RMS[dD(SAO)]   TOL
   6  -1079.2464653908    -3160.6907734     1234.2875279    0.493D-03 0.327D-13
                            Exc = -107.005129679     Coul =  1341.29265753    
                              N = 100.00009707    
                            current damping = 0.200
 
          Norm of current diis error: 0.25742    
          max. resid. norm for Fia-block=  7.534D-03 for orbital     49a         
          max. resid. fock norm         =  1.451D-02 for orbital    803a         

 ITERATION  ENERGY          1e-ENERGY        2e-ENERGY     RMS[dD(SAO)]   TOL
   7  -1079.2465282948    -3160.7724868     1234.3691784    0.216D-03 0.327D-13
                            Exc = -106.989237402     Coul =  1341.35841580    
                              N = 100.00009649    
                            current damping = 0.050
 
          Norm of current diis error: 0.25624    
          max. resid. norm for Fia-block=  4.643D-03 for orbital     44a         
          max. resid. fock norm         =  1.408D-02 for orbital    808a         
          irrep a   : virtual orbitals shifted by    0.00631

 ITERATION  ENERGY          1e-ENERGY        2e-ENERGY     RMS[dD(SAO)]   TOL
   8  -1079.2477656272    -3160.6644291     1234.2598833    0.113D-03 0.327D-13
                            Exc = -106.990142699     Coul =  1341.25002599    
                              N = 100.00009679    
                            current damping = 0.100
 
          Norm of current diis error: 0.16536    
          max. resid. norm for Fia-block=  3.273D-03 for orbital     44a         
          max. resid. fock norm         =  9.006D-03 for orbital    809a         
          irrep a   : virtual orbitals shifted by    0.00153

 ITERATION  ENERGY          1e-ENERGY        2e-ENERGY     RMS[dD(SAO)]   TOL
   9  -1079.2484456150    -3160.6770705     1234.2718447    0.563D-04 0.327D-13
                            Exc = -106.998829973     Coul =  1341.27067472    
                              N = 100.00009655    
                            current damping = 0.150
 
          Norm of current diis error: 0.69843E-01
          max. resid. norm for Fia-block=  1.409D-03 for orbital     47a         
          max. resid. fock norm         =  3.956D-03 for orbital    809a         

 ITERATION  ENERGY          1e-ENERGY        2e-ENERGY     RMS[dD(SAO)]   TOL
  10  -1079.2485573833    -3160.7084227     1234.3030852    0.231D-04 0.327D-13
                            Exc = -106.994904299     Coul =  1341.29798948    
                              N = 100.00009662    
                            current damping = 0.050
 
          Norm of current diis error: 0.33742E-01
          max. resid. norm for Fia-block=  1.221D-03 for orbital     47a         
          max. resid. fock norm         =  2.589D-03 for orbital    812a         
          irrep a   : virtual orbitals shifted by    0.00623
          mo-orthogonalization: Cholesky decomposition

 ITERATION  ENERGY          1e-ENERGY        2e-ENERGY     RMS[dD(SAO)]   TOL
  11  -1079.2485384969    -3160.7004277     1234.2951091    0.180D-04 0.327D-13
                            Exc = -106.997226268     Coul =  1341.29233535    
                              N = 100.00009664    
                            current damping = 0.100
 
          Norm of current diis error: 0.39467E-01
          max. resid. norm for Fia-block=  7.976D-04 for orbital     47a         
          max. resid. fock norm         =  1.870D-03 for orbital    812a         
          irrep a   : virtual orbitals shifted by    0.00191

 ITERATION  ENERGY          1e-ENERGY        2e-ENERGY     RMS[dD(SAO)]   TOL
  12  -1079.2485876555    -3160.6867766     1234.2814088    0.114D-04 0.327D-13
                            Exc = -106.996721515     Coul =  1341.27813027    
                              N = 100.00009661    
                            current damping = 0.050
 
          Norm of current diis error: 0.12710E-01
          max. resid. norm for Fia-block=  3.131D-04 for orbital     33a         
          max. resid. fock norm         =  4.909D-04 for orbital    770a         
          irrep a   : virtual orbitals shifted by    0.00653

 ITERATION  ENERGY          1e-ENERGY        2e-ENERGY     RMS[dD(SAO)]   TOL
  13  -1079.2485893663    -3160.6964638     1234.2910943    0.502D-05 0.327D-13
                            Exc = -106.995514931     Coul =  1341.28660919    
                              N = 100.00009662    
                            current damping = 0.100
 
          Norm of current diis error: 0.89485E-02
          max. resid. norm for Fia-block=  1.945D-04 for orbital     47a         
          max. resid. fock norm         =  4.466D-04 for orbital    813a         
          irrep a   : virtual orbitals shifted by    0.00206

 ITERATION  ENERGY          1e-ENERGY        2e-ENERGY     RMS[dD(SAO)]   TOL
  14  -1079.2485911710    -3160.6936459     1234.2882745    0.332D-05 0.327D-13
                            Exc = -106.996455826     Coul =  1341.28473038    
                              N = 100.00009661    
                            current damping = 0.150
 
          Norm of current diis error: 0.49594E-02
          max. resid. norm for Fia-block=  1.106D-04 for orbital     45a         
          max. resid. fock norm         =  1.957D-04 for orbital    811a         

 ITERATION  ENERGY          1e-ENERGY        2e-ENERGY     RMS[dD(SAO)]   TOL
  15  -1079.2485916003    -3160.6950294     1234.2896576    0.154D-05 0.327D-13
                            Exc = -106.995971187     Coul =  1341.28562880    
                              N = 100.00009662    
                            current damping = 0.200
 
          Norm of current diis error: 0.31295E-02
          max. resid. norm for Fia-block=  6.233D-05 for orbital     44a         
          max. resid. fock norm         =  1.250D-04 for orbital    809a         
          mo-orthogonalization: Cholesky decomposition

 ITERATION  ENERGY          1e-ENERGY        2e-ENERGY     RMS[dD(SAO)]   TOL
  16  -1079.2485917939    -3160.6942733     1234.2889014    0.107D-05 0.327D-13
                            Exc = -106.996176851     Coul =  1341.28507821    
                              N = 100.00009661    
                            current damping = 0.250
 
          Norm of current diis error: 0.17093E-02
          max. resid. norm for Fia-block=  3.599D-05 for orbital     44a         
          max. resid. fock norm         =  1.057D-04 for orbital    808a         

 ITERATION  ENERGY          1e-ENERGY        2e-ENERGY     RMS[dD(SAO)]   TOL
  17  -1079.2485918607    -3160.6939572     1234.2885852    0.612D-06 0.327D-13
                            Exc = -106.996113867     Coul =  1341.28469905    
                              N = 100.00009661    
                            current damping = 0.100
 
          Norm of current diis error: 0.97088E-03
          max. resid. norm for Fia-block=  1.846D-05 for orbital     44a         
          max. resid. fock norm         =  5.421D-05 for orbital    808a         
          irrep a   : virtual orbitals shifted by    0.00205

 ITERATION  ENERGY          1e-ENERGY        2e-ENERGY     RMS[dD(SAO)]   TOL
  18  -1079.2485918656    -3160.6940467     1234.2886747    0.467D-06 0.327D-13
                            Exc = -106.996103477     Coul =  1341.28477818    
                              N = 100.00009661    
                            current damping = 0.150
 
          Norm of current diis error: 0.85924E-03
          max. resid. norm for Fia-block=  1.847D-05 for orbital     47a         
          max. resid. fock norm         =  3.997D-05 for orbital    813a         

 ITERATION  ENERGY          1e-ENERGY        2e-ENERGY     RMS[dD(SAO)]   TOL
  19  -1079.2485918874    -3160.6942671     1234.2888951    0.283D-06 0.327D-13
                            Exc = -106.996139136     Coul =  1341.28503420    
                              N = 100.00009661    
                            current damping = 0.050
 
          Norm of current diis error: 0.26950E-03
          max. resid. norm for Fia-block=  7.836D-06 for orbital     47a         
          max. resid. fock norm         =  1.754D-05 for orbital    812a         
          irrep a   : virtual orbitals shifted by    0.00650

 ITERATION  ENERGY          1e-ENERGY        2e-ENERGY     RMS[dD(SAO)]   TOL
  20  -1079.2485918878    -3160.6941356     1234.2887636    0.140D-06 0.327D-13
                            Exc = -106.996117968     Coul =  1341.28488152    
                              N = 100.00009661    
                            current damping = 0.100
 
          Norm of current diis error: 0.25743E-03
          max. resid. norm for Fia-block=  3.745D-06 for orbital     40a         
          max. resid. fock norm         =  8.948D-06 for orbital    813a         
          irrep a   : virtual orbitals shifted by    0.00205
          mo-orthogonalization: Cholesky decomposition

 DENSITY CONVERGED !


 ITERATION  ENERGY          1e-ENERGY        2e-ENERGY     RMS[dD(SAO)]   TOL
  21  -1079.2485918896    -3160.6941419     1234.2887699    0.711D-07 0.327D-13
                            Exc = -106.996126317     Coul =  1341.28489619    
                              N = 100.00009661    
                            current damping = 0.150
 
          Norm of current diis error: 0.83484E-04
          max. resid. norm for Fia-block=  2.230D-06 for orbital     45a         
          max. resid. fock norm         =  6.107D-06 for orbital    811a         

 DENSITY CONVERGED !


 ITERATION  ENERGY          1e-ENERGY        2e-ENERGY     RMS[dD(SAO)]   TOL
  22  -1079.2485918897    -3160.6941649     1234.2887929    0.382D-07 0.327D-13
                            Exc = -106.996121303     Coul =  1341.28491421    
                              N = 100.00009661    
                            current damping = 0.050
 
          Norm of current diis error: 0.63680E-04
          max. resid. norm for Fia-block=  1.394D-06 for orbital     45a         
          max. resid. fock norm         =  2.584D-06 for orbital    466a         
          irrep a   : virtual orbitals shifted by    0.00650

 ENERGY & DENSITY CONVERGED !


 ITERATION  ENERGY          1e-ENERGY        2e-ENERGY     RMS[dD(SAO)]   TOL
  23  -1079.2485838168    -3160.6941609     1234.2887970    0.210D-07 0.327D-13
                            Exc = -106.996121127     Coul =  1341.28491808    
                              N = 99.999995070    
                            current damping = 0.100
 
          Norm of current diis error: 0.39681E-04
          max. resid. norm for Fia-block=  4.509D-07 for orbital     35a         
          max. resid. fock norm         =  1.109D-06 for orbital    803a         

 End of SCF iterations

   convergence criteria satisfied after   23 iterations


                  ------------------------------------------ 
                 |  total energy      =  -1079.24858381677  |
                  ------------------------------------------ 
                 :  kinetic energy    =   1076.15800546723  :
                 :  potential energy  =  -2155.40658928400  :
                 :  virial theorem    =      1.99713636099  :
                 :  wavefunction norm =      1.00000000000  :
                  .......................................... 


 <geterg> : there is no data group $energy 


 <skperg> : $end is missing 


 orbitals $scfmo  will be written to file mos

    irrep                 46a         47a         48a         49a         50a   
 eigenvalues H         -0.30309    -0.29264    -0.27977    -0.26091    -0.25782
            eV          -8.2476     -7.9633     -7.6130     -7.0998     -7.0158
 occupation              2.0000      2.0000      2.0000      2.0000      2.0000 

    irrep                 51a         52a         53a         54a         55a   
 eigenvalues H         -0.16877    -0.12330    -0.07558    -0.05571    -0.04929
            eV          -4.5926     -3.3553     -2.0565     -1.5160     -1.3414
 
 
 ! grave: sending quit signal to master process
 
 
 
 
 ==============================================================================
                           electrostatic moments
 ==============================================================================

 reference point for electrostatic moments:    0.00000   0.00000   0.00000

 
              nuc           elec       ->  total
 ------------------------------------------------------------------------------
                          charge      
 ------------------------------------------------------------------------------
         100.000000    -100.000000       0.000000
 
 ------------------------------------------------------------------------------
                       dipole moment  
 ------------------------------------------------------------------------------
   x     528.509005    -526.632338       1.876667
   y     -22.160365      22.011195      -0.149169
   z     -32.856479      32.501556      -0.354923
 
   | dipole moment | =     1.9158 a.u. =     4.8694 debye 
 
 ------------------------------------------------------------------------------
                     quadrupole moment
 ------------------------------------------------------------------------------
  xx    3817.788891   -3858.618158     -40.829267
  yy     456.275472    -516.892698     -60.617227
  zz     939.453762   -1004.164329     -64.710567
  xy    -353.885885     355.305211       1.419326
  xz    -559.348433     560.286072       0.937639
  yz     653.368314    -658.258168      -4.889854
 
     1/3  trace=     -55.385687
     anisotropy=      23.869030
 
 ==============================================================================
 

    ridft profiling
  --------------------------------------------------------------------
             module   cpu total (s)       %  wall total (s)       %

               RIDFT           185.8  100.00           186.8  100.00
         Ridft_b_scf            76.9   41.38            77.3   41.36
        b_scf_prelim             0.0    0.00             0.0    0.00
        b_scf_molinp             0.0    0.01             0.0    0.01
         b_scf_init0             0.0    0.00             0.0    0.00
        b_scf_auxbas             0.0    0.01             0.0    0.01
      b_scf_symmetry             0.0    0.00             0.0    0.00
         b_scf_cosmo             0.0    0.00             0.0    0.00
        b_scf_params            67.8   36.49            68.2   36.49
          b_scf_ri-j             8.5    4.56             8.5    4.53
    b_scf_ri-j_auxpq             8.5    4.56             8.5    4.53
     ri-j_auxpq_chol             0.0    0.01             0.0    0.01
         b_scf_1elec             0.1    0.08             0.1    0.08
       b_scf_moinput             0.4    0.24             0.4    0.24
     moinput_orthmos             0.4    0.22             0.4    0.22
    b_scf_dft-dstmax             0.0    0.00             0.0    0.00
           Ridft_scf           108.8   58.57           109.5   58.59
          Scf_b_loop             0.0    0.00             0.0    0.00
                noga             0.0    0.00             0.0    0.00
            Scf_loop           108.6   58.44           109.2   58.45
     scf_loop_mkdmat             0.4    0.22             0.5    0.26
       scf_loop_ri-j            13.7    7.35            13.7    7.31
      parlp1.bc.dens             0.9    0.49             0.9    0.49
        parlp1.gs.gp             0.0    0.00             0.0    0.00
        parlp2.bc.gq             0.0    0.00             0.0    0.00
        scf_loop_dft            81.4   43.81            81.4   43.56
      pardft.bc.dens             0.0    0.00             0.0    0.00
        dft_grid_con             0.1    0.05             0.1    0.05
           dft_xcrhf            77.7   41.80            77.7   41.57
          dft_getval             6.8    3.68             6.9    3.70
          funct2 dst             0.1    0.04             0.1    0.04
      funct2 f2loop1             2.0    1.05             2.0    1.09
      funct2 f2loop2             2.5    1.37             2.4    1.30
          funct2 s+c             1.5    0.83             1.6    0.88
        funct2 cmf_2             1.3    0.71             1.4    0.76
          dft_mkdens            30.3   16.30            30.2   16.17
         dft_gga-fun             0.1    0.05             0.1    0.05
          dft_mkfock            40.0   21.55            40.0   21.42
     pardft.red.fock             6.1    3.28             6.1    3.26
     scf_loop_energy             0.0    0.01             0.0    0.01
     scf_loop_mkfock             0.0    0.01             0.0    0.00
       scf_loop_diis             2.9    1.56             3.1    1.63
       scf_loop_diag             4.7    2.51             4.7    2.49
         diag_tritrn             1.1    0.57             1.1    0.57
          diag_rdiag             3.5    1.90             3.5    1.89
     scf_loop_modump             4.7    2.55             5.1    2.75
      scf_loop_ortho             0.6    0.35             0.6    0.35
          Scf_a_loop             0.2    0.13             0.3    0.14
         Ridft_a_scf             0.1    0.04             0.1    0.05
         a_scf_fanal             0.1    0.04             0.1    0.04
 


    ------------------------------------------------------------------------
         total  cpu-time :  3 minutes and  6 seconds
         total wall-time :  3 minutes and  7 seconds
    ------------------------------------------------------------------------


   ****  ridft : all done  ****


    2015-10-18 11:44:57.115 

