           Doing BLAS/Lapack in the master proc. with  8 CPUs.
           SMPCPUS    set: Shared-memory Parallelization with   8 CPUs.

           SMP Parallelization Reference:
           C. van Wullen, J. Comput. Chem. 32 (2011) 1195--1201
 operating system is UNIX !

 ridft (c-18-412.gp.local) : TURBOMOLE V7.2 ( 21454 ) 4 Oct 2017 at 12:48:15
 Copyright (C) 2017 TURBOMOLE GmbH, Karlsruhe


    2018-04-28 20:54:19.911 



                                  r i d f t

                        DFT program with RI approximation 
                                for coulomb part 




                                                 
                                 References:     
                                                 
          TURBOMOLE:                             
              R. Ahlrichs, M. Baer, M. Haeser, H. Horn, and
              C. Koelmel
              Electronic structure calculations on workstation
              computers: the program system TURBOMOLE
              Chem. Phys. Lett. 162: 165 (1989)
          Density Functional:                              
              O. Treutler and R. Ahlrichs                      
              Efficient Molecular Numerical Integration Schemes
              J. Chem. Phys. 102: 346 (1995)                   
          Parallel Version:                                
              Performance of parallel TURBOMOLE for Density    
              Functional Calculations                          
              M. v. Arnim and R. Ahlrichs                      
              J. Comp. Chem. 19: 1746 (1998)                   
          RI-J Method:                                     
              Auxiliary Basis Sets to approximate Coulomb      
              Potentials                                       
              Chem. Phys. Lett. 240: 283 (1995)                
              K. Eichkorn, O. Treutler, H. Oehm, M. Haeser     
              and R. Ahlrichs                                  
              Chem. Phys. Lett. 242: 652 (1995)                
                                                           
              Auxiliary Basis Sets for Main Row Atoms and their
              Use to approximate Coulomb Potentials            
              K. Eichkorn, F. Weigend, O. Treutler and         
              R. Ahlrichs                                      
              Theo. Chem. Acc. 97: 119 (1997)                   
                                                           
              Accurate Coulomb-fitting basis sets for H to Rn 
              F. Weigend                                        
              Phys. Chem. Chem. Phys. 8: 1057 (2006)            
                                                           
          Multipole accelerated RI-J (MARI-J):             
              Fast evaluation of the Coulomb potential for     
              electron densities using multipole accelerated   
              resolution of identity approximation             
              M. Sierka, A. Hogekamp and R. Ahlrichs           
              J. Chem. Phys. 118: 9136 (2003)                  
          RI-JK Method:                                     
              A fully direct RI-HF algorithm: Implementation,
              optimised auxiliary basis sets, demonstration of
              accuracy and efficiency                         
              F. Weigend                                      
              Phys. Chem. Chem. Phys. 4: 4285 (2002)           
          Two-component HF and DFT with spin-orbit coupling:  
              Self-consistent treatment of spin-orbit         
              interactions with efficient Hartree-Fock and    
              density functional methods                      
              M. K. Armbruster, F. Weigend, C. van Wüllen and 
              W. Klopper                                      
              Phys. Chem. Chem. Phys. 10: 1748 (2008)         
          Relativistic all-electron 2c calculations           
              An efficient implementation of two-component    
              relativistic exact-decoupling methods for large 
              molecules                                       
              D. Peng, N. Middendorf, F. Weigend, M. Reiher   
              J. Chem. Phys. 138, 184105 (2013)               
                                         




              +--------------------------------------------------+
              |      general information about current run       |
              +--------------------------------------------------+

 

 DENSITY CONVERGENCE CHECK SWITCHED ON !
 SCF CONVERGENCE IF RMS(delta[D]) <     0.1000000000E-06

 PBE functional
 exchange:    LDA + PBE
 correlation: LDA (PW) + PBE
 A DFT calculation using the RI-J approximation will be carried out.
 Allocatable memory for RI due to $ricore (MB):                  5000


              +--------------------------------------------------+
              | Atomic coordinate, charge and isotop information |
              +--------------------------------------------------+

                    atomic coordinates            atom    charge  isotop
          4.03846890    0.47624381    0.85740428    o      8.000     0
          5.40068707    1.66166831    1.02826351    h      1.000     0
          5.01939581   -1.99053978    1.29937681    c      6.000     0
          3.44606368   -3.29215987    1.09986601    h      1.000     0
          6.46718824   -2.49886240   -0.07422879    h      1.000     0
          5.79058745   -2.18225098    3.19975058    h      1.000     0
 
       center of nuclear mass  :    4.56190510   -0.70690534    1.08045759
       center of nuclear charge:    4.64048070   -0.80249406    1.10606369

              +--------------------------------------------------+
              |               basis set information              |
              +--------------------------------------------------+

              we will work with the 1s 3p 5d 7f 9g ... basis set
              ...i.e. with spherical basis functions...

   type   atoms  prim   cont   basis
   ---------------------------------------------------------------------------
    o        1     77     55   cc-pVQZ   [5s4p3d2f1g|21s6p3d2f1g]
    h        4     32     30   cc-pVQZ   [4s3p2d1f|6s3p2d1f]
    c        1     77     55   cc-pVQZ   [5s4p3d2f1g|21s6p3d2f1g]
   ---------------------------------------------------------------------------
   total:    6    282    230
   ---------------------------------------------------------------------------

   total number of primitive shells          :   78
   total number of contracted shells         :   70
   total number of cartesian basis functions :  280
   total number of SCF-basis functions       :  230


 integral neglect threshold       :  0.12E-12
 integral storage threshold THIZE :  0.10E-04
 integral storage threshold THIME :         5

 RI-J AUXILIARY BASIS SET information:

              we will work with the 1s 3p 5d 7f 9g ... basis set
              ...i.e. with spherical basis functions...

   type   atoms  prim   cont   basis
   ---------------------------------------------------------------------------
    o        1     70     49   cc-pVQZ   [6s4p3d1f1g|12s5p4d2f1g]
    h        4     16     11   cc-pVQZ   [3s1p1d|5s2p1d]
    c        1     70     49   cc-pVQZ   [6s4p3d1f1g|12s5p4d2f1g]
   ---------------------------------------------------------------------------
   total:    6    204    142
   ---------------------------------------------------------------------------

   total number of primitive shells          :   56
   total number of contracted shells         :   50
   total number of cartesian basis functions :  170
   total number of SCF-basis functions       :  142


 symmetry group of the molecule :   c1 

 the group has the following generators :
   c1(z)

    1 symmetry operations found

 there are 1 real representations :   a   

 maximum number of shells which are related by symmetry :  1


    mo occupation :
   irrep   mo's   occupied
    a      230        9
 
 number of basis functions   :                    230
 number of occupied orbitals :                      9
 
  
           ------------------
           density functional
           ------------------
 PBE functional
 exchange:    LDA + PBE
 correlation: LDA (PW) + PBE

 iterations will be done with small grid
  
 spherical integration : Lebedev's spherical grid
 spherical gridsize    :                     5
    i.e. gridpoints    :                   590
 value for diffuse not defined
 radial integration    : Chebyshev 2nd kind (scaling 3)
 radial gridsize       :                     8
 integration cells     :                     6
 partition function    : becke
 partition sharpness   :                     3
  

 biggest AO integral is expected to be     4.785886462
  
           ------------------------
               RI-J - INFORMATION
           ------------------------
 Contributions to RI integral batches: 
  neglected integral batches:                    23
  direct contribution:                            0
  memory contribution:                  2462
 Memory core needed for (P|Q) and Cholesky      1 MByte
 Memory core minimum needed except of (P|Q)     1 MByte
 Total minimum memory core needed (sum)         1 MByte
  
 ****************************************
 Memory allocated for RI-J    52 MByte
 ****************************************
                                            

          ------------------------
          nuclear repulsion energy  :   40.3037887413    
          ------------------------


         -----------------
         -S,T+V- integrals
         -----------------

 1e-integrals will be neglected if expon. factor < 0.119356E-13
 Difference densities >>NOT<< switched on in parallel ridft!

 DIIS switched on: error vector is FDS-SDF
 Max. Iterations for DIIS is     :   4
 DIIS matrix (see manual) 
    Scaling factor of diagonals  :  1.200
    threshold for scaling factor :  0.000

 scf convergence criterion : increment of total energy < .1000000D-08
                  and increment of one-electron energy < .1000000D-05

  MOs are in ASCII format !


 automatic virtual orbital shift switched on 
      shift if e(lumo)-e(homo) < 0.10000000    


 reading orbital data $scfmo  from file mos
 orbital characterization : expanded
 mo provided and orthogonalized by Cholesky decomposition

 DSCF restart information will be dumped onto file mos


 Starting SCF iterations

          Overall gridpoints after grid construction =         27156

 ITERATION  ENERGY          1e-ENERGY        2e-ENERGY     RMS[dD(SAO)]   TOL
   1  -115.17988804421    -236.18642041     80.702743627    0.000D+00 0.119D-12
                            Exc = -15.2585022912     Coul =  95.9612459183    
                              N = 18.000003883    
                            current damping = 0.700
 
          max. resid. norm for Fia-block=  3.211D-01 for orbital      1a         
          max. resid. fock norm         =  1.179D+01 for orbital    210a         

 ITERATION  ENERGY          1e-ENERGY        2e-ENERGY     RMS[dD(SAO)]   TOL
   2  -115.55767310125    -236.40174979     80.540287946    0.487D-02 0.119D-12
                            Exc = -15.2503709448     Coul =  95.7906588908    
                              N = 18.000003713    
                            current damping = 0.650
 
          Norm of current diis error:  1.6002    
          max. resid. norm for Fia-block=  1.391D-01 for orbital      1a         
          max. resid. fock norm         =  2.106D-01 for orbital    206a         

 ITERATION  ENERGY          1e-ENERGY        2e-ENERGY     RMS[dD(SAO)]   TOL
   3  -115.61643406753    -237.01086425     81.090641446    0.253D-02 0.119D-12
                            Exc = -15.3518210035     Coul =  96.4424624495    
                              N = 18.000003300    
                            current damping = 0.600
 
          Norm of current diis error: 0.74973    
          max. resid. norm for Fia-block=  5.614D-02 for orbital      1a         
          max. resid. fock norm         =  5.910D-02 for orbital      1a         

 ITERATION  ENERGY          1e-ENERGY        2e-ENERGY     RMS[dD(SAO)]   TOL
   4  -115.63378735967    -236.75462002     80.817043922    0.160D-02 0.119D-12
                            Exc = -15.3321058194     Coul =  96.1491497412    
                              N = 18.000003258    
                            current damping = 0.650
 
          Norm of current diis error: 0.28737    
          max. resid. norm for Fia-block=  2.068D-02 for orbital      1a         
          max. resid. fock norm         =  3.711D-02 for orbital    222a         

 ITERATION  ENERGY          1e-ENERGY        2e-ENERGY     RMS[dD(SAO)]   TOL
   5  -115.63666611678    -237.04705372     81.106598857    0.657D-03 0.119D-12
                            Exc = -15.3721477331     Coul =  96.4787465904    
                              N = 18.000003147    
                            current damping = 0.700
 
          Norm of current diis error: 0.11988    
          max. resid. norm for Fia-block=  8.697D-03 for orbital      8a         
          max. resid. fock norm         =  1.005D-02 for orbital      8a         
          mo-orthogonalization: Cholesky decomposition

 ITERATION  ENERGY          1e-ENERGY        2e-ENERGY     RMS[dD(SAO)]   TOL
   6  -115.63724181036    -236.95941062     81.018380066    0.424D-03 0.119D-12
                            Exc = -15.3647806441     Coul =  96.3831607103    
                              N = 18.000003090    
                            current damping = 0.750
 
          Norm of current diis error: 0.46531E-01
          max. resid. norm for Fia-block=  3.450D-03 for orbital      1a         
          max. resid. fock norm         =  4.824D-03 for orbital    209a         

 ITERATION  ENERGY          1e-ENERGY        2e-ENERGY     RMS[dD(SAO)]   TOL
   7  -115.63733316655    -236.98400558     81.042883674    0.151D-03 0.119D-12
                            Exc = -15.3683651629     Coul =  96.4112488373    
                              N = 18.000003067    
                            current damping = 0.800
 
          Norm of current diis error: 0.18631E-01
          max. resid. norm for Fia-block=  1.470D-03 for orbital      1a         
          max. resid. fock norm         =  2.240D-03 for orbital    209a         

 ITERATION  ENERGY          1e-ENERGY        2e-ENERGY     RMS[dD(SAO)]   TOL
   8  -115.63734855096    -236.98655504     81.045417749    0.685D-04 0.119D-12
                            Exc = -15.3691305225     Coul =  96.4145482714    
                              N = 18.000003054    
                            current damping = 0.650
 
          Norm of current diis error: 0.85337E-02
          max. resid. norm for Fia-block=  6.545D-04 for orbital      1a         
          max. resid. fock norm         =  8.935D-04 for orbital    209a         

 ITERATION  ENERGY          1e-ENERGY        2e-ENERGY     RMS[dD(SAO)]   TOL
   9  -115.63735204026    -236.98957176     81.048430976    0.338D-04 0.119D-12
                            Exc = -15.3696400807     Coul =  96.4180710569    
                              N = 18.000003049    
                            current damping = 0.500
 
          Norm of current diis error: 0.32063E-02
          max. resid. norm for Fia-block=  2.609D-04 for orbital      1a         
          max. resid. fock norm         =  3.726D-04 for orbital    209a         

 ITERATION  ENERGY          1e-ENERGY        2e-ENERGY     RMS[dD(SAO)]   TOL
  10  -115.63735255479    -236.98851711     81.047375810    0.160D-04 0.119D-12
                            Exc = -15.3696228501     Coul =  96.4169986602    
                              N = 18.000003046    
                            current damping = 0.550
 
          Norm of current diis error: 0.13311E-02
          max. resid. norm for Fia-block=  9.550D-05 for orbital      4a         
          max. resid. fock norm         =  1.598D-04 for orbital    209a         
          mo-orthogonalization: Cholesky decomposition

 ITERATION  ENERGY          1e-ENERGY        2e-ENERGY     RMS[dD(SAO)]   TOL
  11  -115.63735262170    -236.99034676     81.049205401    0.391D-05 0.119D-12
                            Exc = -15.3698502056     Coul =  96.4190556068    
                              N = 18.000003045    
                            current damping = 0.600
 
          Norm of current diis error: 0.55007E-03
          max. resid. norm for Fia-block=  3.904D-05 for orbital      8a         
          max. resid. fock norm         =  4.190D-05 for orbital      8a         

 ITERATION  ENERGY          1e-ENERGY        2e-ENERGY     RMS[dD(SAO)]   TOL
  12  -115.63735263333    -236.98978254     81.048641168    0.219D-05 0.119D-12
                            Exc = -15.3697931831     Coul =  96.4184343506    
                              N = 18.000003045    
                            current damping = 0.650
 
          Norm of current diis error: 0.17755E-03
          max. resid. norm for Fia-block=  1.230D-05 for orbital      4a         
          max. resid. fock norm         =  2.461D-05 for orbital    209a         

 ITERATION  ENERGY          1e-ENERGY        2e-ENERGY     RMS[dD(SAO)]   TOL
  13  -115.63735263438    -236.98980828     81.048666907    0.574D-06 0.119D-12
                            Exc = -15.3698022013     Coul =  96.4184691084    
                              N = 18.000003044    
                            current damping = 0.700
 
          Norm of current diis error: 0.65430E-04
          max. resid. norm for Fia-block=  4.596D-06 for orbital      1a         
          max. resid. fock norm         =  5.771D-06 for orbital    209a         

 ITERATION  ENERGY          1e-ENERGY        2e-ENERGY     RMS[dD(SAO)]   TOL
  14  -115.63735263457    -236.98982875     81.048687377    0.240D-06 0.119D-12
                            Exc = -15.3698050480     Coul =  96.4184924249    
                              N = 18.000003044    
                            current damping = 0.550
 
          Norm of current diis error: 0.23059E-04
          max. resid. norm for Fia-block=  1.862D-06 for orbital      1a         
          max. resid. fock norm         =  3.023D-06 for orbital    209a         

 ITERATION  ENERGY          1e-ENERGY        2e-ENERGY     RMS[dD(SAO)]   TOL
  15  -115.63735263460    -236.98984033     81.048698956    0.103D-06 0.119D-12
                            Exc = -15.3698068296     Coul =  96.4185057855    
                              N = 18.000003044    
                            current damping = 0.400
 
          Norm of current diis error: 0.80765E-05
          max. resid. norm for Fia-block=  6.947D-07 for orbital      8a         
          max. resid. fock norm         =  9.360D-07 for orbital    209a         
          mo-orthogonalization: Cholesky decomposition

 DENSITY CONVERGED !


 ITERATION  ENERGY          1e-ENERGY        2e-ENERGY     RMS[dD(SAO)]   TOL
  16  -115.63735263460    -236.98983288     81.048691508    0.484D-07 0.119D-12
                            Exc = -15.3698062143     Coul =  96.4184977219    
                              N = 18.000003044    
                            current damping = 0.450
 
          Norm of current diis error: 0.47474E-05
          max. resid. norm for Fia-block=  3.267D-07 for orbital      5a         
          max. resid. fock norm         =  5.887D-07 for orbital    204a         

 ENERGY & DENSITY CONVERGED !

          Overall gridpoints after grid construction =         91047

 ITERATION  ENERGY          1e-ENERGY        2e-ENERGY     RMS[dD(SAO)]   TOL
  17  -115.63735649598    -236.98984047     81.048695236    0.721D-08 0.119D-12
                            Exc = -15.3698110301     Coul =  96.4185062663    
                              N = 17.999999978    
                            current damping = 0.500
 
          Norm of current diis error: 0.24631E-05
          max. resid. norm for Fia-block=  1.118D-07 for orbital      8a         
          max. resid. fock norm         =  1.153D-07 for orbital      8a         

 End of SCF iterations

   convergence criteria satisfied after    17 iterations


                  ------------------------------------------ 
                 |  total energy      =   -115.63735649598  |
                  ------------------------------------------ 
                 :  kinetic energy    =    115.21849707047  :
                 :  potential energy  =   -230.85585356645  :
                 :  virial theorem    =      1.99637781909  :
                 :  wavefunction norm =      1.00000000000  :
                  .......................................... 


 <geterg> : there is no data group $energy 


 <skperg> : $end is missing 


 orbitals $scfmo  will be written to file mos

    irrep                  5a          6a          7a          8a          9a   
 eigenvalues H         -0.45722    -0.39039    -0.37861    -0.29172    -0.22748
            eV         -12.4416    -10.6231    -10.3027     -7.9383     -6.1900
 occupation              2.0000      2.0000      2.0000      2.0000      2.0000 

    irrep                 10a         11a         12a         13a         14a   
 eigenvalues H          0.00072     0.03619     0.08056     0.08082     0.10839
            eV           0.0196      0.9847      2.1923      2.1991      2.9496
 
 
 
 
 ==============================================================================
                           electrostatic moments
 ==============================================================================

 reference point for electrostatic moments:    0.00000   0.00000   0.00000

 
              nuc           elec       ->  total
 ------------------------------------------------------------------------------
                          charge      
 ------------------------------------------------------------------------------
          18.000000     -18.000000      -0.000000
 
 ------------------------------------------------------------------------------
                       dipole moment  
 ------------------------------------------------------------------------------
   x      83.528653     -82.935604       0.593049
   y     -14.444893      14.334690      -0.110203
   z      19.909146     -19.774556       0.134590
 
   | dipole moment | =     0.6180 a.u. =     1.5709 debye 
 
 ------------------------------------------------------------------------------
                     quadrupole moment
 ------------------------------------------------------------------------------
  xx     398.038057    -402.601366      -4.563309
  yy      50.193948     -58.760423      -8.566475
  zz      28.522362     -38.564387     -10.042025
  xy     -75.729446      76.212143       0.482697
  xz      94.225245     -93.035959       1.189286
  yz     -20.961573      20.888435      -0.073138
 
     1/3  trace=      -7.723936
     anisotropy=       5.391447
 
 ==============================================================================
 


    ------------------------------------------------------------------------
         total  cpu-time :  1 minutes and  6 seconds
         total wall-time :   5.91 seconds
    ------------------------------------------------------------------------

   ****  ridft : all done  ****


    2018-04-28 20:54:25.808 

