STARTING ridft ON 32 PROCESSORS!
RUNNING PROGRAM /sopt/TURBOMOLE/7.3-official/bin/em64t-unknown-linux-gnu_smp/ridft_mpi.
           SMPCPUS    set: Shared-memory Parallelization with  32 CPUs.

           SMP Parallelization Reference:
           C. van Wullen, J. Comput. Chem. 32 (2011) 1195--1201
 operating system is UNIX !

 ridft (c-15-42) : TURBOMOLE V7.3 ( 22118 ) 1 Jul 2018 at 20:38:15
 Copyright (C) 2018 TURBOMOLE GmbH, Karlsruhe


    2019-03-12 22:19:27.737 



                                  r i d f t

                        DFT program with RI approximation 
                                for coulomb part 




                                                 
                                 References:     
                                                 
          TURBOMOLE:                             
              R. Ahlrichs, M. Baer, M. Haeser, H. Horn, and
              C. Koelmel
              Electronic structure calculations on workstation
              computers: the program system TURBOMOLE
              Chem. Phys. Lett. 162: 165 (1989)
          Density Functional:                              
              O. Treutler and R. Ahlrichs                      
              Efficient Molecular Numerical Integration Schemes
              J. Chem. Phys. 102: 346 (1995)                   
          Parallel Version:                                
              Performance of parallel TURBOMOLE for Density    
              Functional Calculations                          
              M. v. Arnim and R. Ahlrichs                      
              J. Comp. Chem. 19: 1746 (1998)                   
          RI-J Method:                                     
              Auxiliary Basis Sets to approximate Coulomb      
              Potentials                                       
              Chem. Phys. Lett. 240: 283 (1995)                
              K. Eichkorn, O. Treutler, H. Oehm, M. Haeser     
              and R. Ahlrichs                                  
              Chem. Phys. Lett. 242: 652 (1995)                
                                                           
              Auxiliary Basis Sets for Main Row Atoms and their
              Use to approximate Coulomb Potentials            
              K. Eichkorn, F. Weigend, O. Treutler and         
              R. Ahlrichs                                      
              Theo. Chem. Acc. 97: 119 (1997)                   
                                                           
              Accurate Coulomb-fitting basis sets for H to Rn 
              F. Weigend                                        
              Phys. Chem. Chem. Phys. 8: 1057 (2006)            
                                                           
          Multipole accelerated RI-J (MARI-J):             
              Fast evaluation of the Coulomb potential for     
              electron densities using multipole accelerated   
              resolution of identity approximation             
              M. Sierka, A. Hogekamp and R. Ahlrichs           
              J. Chem. Phys. 118: 9136 (2003)                  
          RI-JK Method:                                     
              A fully direct RI-HF algorithm: Implementation,
              optimised auxiliary basis sets, demonstration of
              accuracy and efficiency                         
              F. Weigend                                      
              Phys. Chem. Chem. Phys. 4: 4285 (2002)           
          Two-component HF and DFT with spin-orbit coupling:  
              Self-consistent treatment of spin-orbit         
              interactions with efficient Hartree-Fock and    
              density functional methods                      
              M. K. Armbruster, F. Weigend, C. van Wüllen and 
              W. Klopper                                      
              Phys. Chem. Chem. Phys. 10: 1748 (2008)         
          Two-component difference density and DIIS algorithm 
              Efficient two-component self-consistent field   
              procedures and gradients: implementation in     
              TURBOMOLE and application to Au20-              
              A. Baldes, F. Weigend                           
              Mol. Phys. 111: 2617 (2013)                     
          Relativistic all-electron 2c calculations           
              An efficient implementation of two-component    
              relativistic exact-decoupling methods for large 
              molecules                                       
              D. Peng, N. Middendorf, F. Weigend, M. Reiher   
              J. Chem. Phys. 138: 184105 (2013)               
          Finite nucleus model and SNSO approximation         
              Efficient implementation of one- and two-       
              component analytical energy gradients in exact  
              two-component theory                            
              Y. J. Franzke, N. Middendorf, F. Weigend        
              J. Chem. Phys. 148: 104110 (2018)               
                                         




              +--------------------------------------------------+
              |      general information about current run       |
              +--------------------------------------------------+

 
 PBE functional
 exchange:    LDA + PBE
 correlation: LDA (PW) + PBE
 A DFT calculation using the RI-J approximation will be carried out.
 Allocatable memory for RI due to $ricore (MB):                  8000


              +--------------------------------------------------+
              | Atomic coordinate, charge and isotop information |
              +--------------------------------------------------+

                    atomic coordinates            atom    charge  isotop
         -2.00633963    2.45124044    0.55191342    c      6.000     0
         -0.67682642    4.29054497    1.00498030    o      8.000     0
         -1.11362225    0.17936857    0.00715982    o      8.000     0
          0.76427263    0.24136077    0.03479333    h      1.000     0
         -4.83472787    2.53705149    0.55984520    c      6.000     0
         -5.47264306    4.43606407    0.97947593    h      1.000     0
         -5.54235751    1.93203795   -1.27177728    h      1.000     0
         -5.55052620    1.21870410    1.96447819    h      1.000     0
 
       center of nuclear mass  :   -2.11050946    2.31997837    0.52066873
       center of nuclear charge:   -2.22410152    2.29741334    0.51483259

              +--------------------------------------------------+
              |               basis set information              |
              +--------------------------------------------------+

              we will work with the 1s 3p 5d 7f 9g ... basis set
              ...i.e. with spherical basis functions...

   type   atoms  prim   cont   basis
   ---------------------------------------------------------------------------
    c        2     68     48   def2-QZVP   [7s4p3d2f|15s8p3d2f]
    o        2     68     48   def2-QZVP   [7s4p3d2f|15s8p3d2f]
    h        4     26     23   def2-QZVP   [4s3p2d|7s3p2d]
   ---------------------------------------------------------------------------
   total:    8    376    284
   ---------------------------------------------------------------------------

   total number of primitive shells          :   68
   total number of contracted shells         :  100
   total number of cartesian basis functions :  328
   total number of SCF-basis functions       :  284


 integral neglect threshold       :  0.10E-10
 integral storage threshold THIZE :  0.10E-04
 integral storage threshold THIME :         5

 RI-J AUXILIARY BASIS SET information:

              we will work with the 1s 3p 5d 7f 9g ... basis set
              ...i.e. with spherical basis functions...

   type   atoms  prim   cont   basis
   ---------------------------------------------------------------------------
    c        2     70     49   def2-QZVP   [6s4p3d1f1g|12s5p4d2f1g]
    o        2     70     49   def2-QZVP   [6s4p3d1f1g|12s5p4d2f1g]
    h        4     16     11   def2-QZVP   [3s1p1d|5s2p1d]
   ---------------------------------------------------------------------------
   total:    8    344    240
   ---------------------------------------------------------------------------

   total number of primitive shells          :   56
   total number of contracted shells         :   80
   total number of cartesian basis functions :  292
   total number of SCF-basis functions       :  240


 symmetry group of the molecule :   c1 

 the group has the following generators :
   c1(z)

    1 symmetry operations found

 there are 1 real representations :   a   

 maximum number of shells which are related by symmetry :  1


    mo occupation :
   irrep   mo's   occupied
    a      284       16
 
 number of basis functions   :                    284
 number of occupied orbitals :                     16
 
  
           ------------------
           density functional
           ------------------
 PBE functional
 exchange:    LDA + PBE
 correlation: LDA (PW) + PBE

 iterations will be done with small grid
  
 spherical integration : Lebedev's spherical grid
 spherical gridsize    :                     4
    i.e. gridpoints    :                   434
 value for diffuse not defined
 radial integration    : Chebyshev 2nd kind (scaling 3)
 radial gridsize       :                     6
 integration cells     :                     8
 partition function    : becke
 partition sharpness   :                     3
  

 biggest AO integral is expected to be     6.990327543
  
           ------------------------
               RI-J - INFORMATION
           ------------------------
 Contributions to RI integral batches: 
  neglected integral batches:                   375
  direct contribution:                            0
  memory contribution:                  4675
 Memory core needed for (P|Q) and Cholesky      1 MByte
 Memory core minimum needed except of (P|Q)     1 MByte
 Total minimum memory core needed (sum)         1 MByte
  
 ****************************************
 Memory allocated for RI-J   116 MByte
 ****************************************
                                            

          ------------------------
          nuclear repulsion energy  :   121.353542001    
          ------------------------

  _________________________________
 |                                 |
 |         DFTD3 V3.1 Rev 0        |
 | S.Grimme, University Bonn       |
 |            June  2014           |
 |   see standalone version        |
 |       dftd3 -h for options      |
 |_________________________________|
 
 Please cite DFT-D3 work done with this code as:
 S. Grimme, J. Antony, S. Ehrlich and H. Krieg,
 J. Chem. Phys, 132 (2010), 154104.
 If used with BJ-damping cite also
 S. Grimme, S. Ehrlich and L. Goerigk,
 J. Comput. Chem. 32 (2011), 1456-1465
 For DFT-D2 the reference is
 S. Grimme, J. Comput. Chem., 27 (2006), 1787-1799
 
C6 coefficients used:
                     2  C6 for element                      1
Z=  1 CN= 0.912     C6(AA)=    3.03
Z=  1 CN= 0.000     C6(AA)=    7.59
                     5  C6 for element                      6
Z=  6 CN= 0.000     C6(AA)=   49.11
Z=  6 CN= 0.987     C6(AA)=   43.25
Z=  6 CN= 1.998     C6(AA)=   29.36
Z=  6 CN= 2.999     C6(AA)=   25.78
Z=  6 CN= 3.984     C6(AA)=   18.21
                     3  C6 for element                      8
Z=  8 CN= 0.000     C6(AA)=   15.51
Z=  8 CN= 0.993     C6(AA)=   12.82
Z=  8 CN= 1.989     C6(AA)=   10.37

#           XYZ [au]              R0(AA) [Ang.]  CN          C6(AA)     C8(AA)   C10(AA) [au]
  1  -2.00634   2.45124   0.55191   c   0.610  3.028        25.6       741.0     26251.4
  2  -0.67683   4.29054   1.00498   o   0.510  1.041        12.8       257.9      6374.7
  3  -1.11362   0.17937   0.00716   o   0.510  2.034        10.4       209.9      5188.6
  4   0.76427   0.24136   0.03479   h   0.395  1.007         3.1        37.3       552.7
  5  -4.83473   2.53705   0.55985   c   0.610  4.029        18.3       529.3     18752.9
  6  -5.47264   4.43606   0.97948   h   0.395  1.000         3.1        37.4       553.2
  7  -5.54236   1.93204  -1.27178   h   0.395  0.999         3.1        37.4       553.3
  8  -5.55053   1.21870   1.96448   h   0.395  0.999         3.1        37.4       553.3

molecular C6(AA) [au] =       530.20

           DFT-D V3(BJ)
 DF pbe                                               
 parameters
 s6       :    1.0000
 s8       :    0.7875
 a1       :    0.4289
 a2       :    4.4407
 k1-k3    :   16.0000    1.3333   -4.0000
 
 Edisp /kcal,au:    -2.6247 -0.00418269

 E6    /kcal :    -1.8866
 E8    /kcal :    -0.7381
 % E8        : 28.12
 nuclear repulsion energy                  =     121.353542001
 empirical dispersive energy correction    =      -0.004182685
 nuclear repulsion + dispersion correction =     121.349359315


         -----------------
         -S,T+V- integrals
         -----------------

 1e-integrals will be neglected if expon. factor < 0.101889E-11
 Difference densities >>NOT<< switched on in parallel ridft!

 DIIS switched on: error vector is FDS-SDF
 Max. Iterations for DIIS is     :   4
 DIIS matrix (see manual) 
    Scaling factor of diagonals  :  1.200
    threshold for scaling factor :  0.000

 scf convergence criterion : increment of total energy < .1000000D-06
                  and increment of one-electron energy < .1000000D-03

  MOs are in ASCII format !


 automatic virtual orbital shift switched on 
      shift if e(lumo)-e(homo) < 0.10000000    


 reading orbital data $scfmo  from file mos
 orbital characterization : expanded
 mo provided and orthogonalized by Cholesky decomposition

 DSCF restart information will be dumped onto file mos


 Starting SCF iterations

          Overall gridpoints after grid construction =         21722

 ITERATION  ENERGY          1e-ENERGY        2e-ENERGY     NORM[dD(SAO)]  TOL
   1  -227.87616735189    -549.40467773     200.17915106    0.000D+00 0.102D-10
                            Exc = -29.2280676883     Coul =  229.407218747    
                              N = 31.999954526    
                            current damping = 0.700
 
          max. resid. norm for Fia-block=  8.570D-01 for orbital      6a         
          max. resid. fock norm         =  8.636D+01 for orbital    268a         

 ITERATION  ENERGY          1e-ENERGY        2e-ENERGY     NORM[dD(SAO)]  TOL
   2  -228.79128092827    -551.30439160     201.16375136    0.000D+00 0.102D-10
                            Exc = -29.1067192738     Coul =  230.270470632    
                              N = 31.999950443    
                            current damping = 0.650
 
          Norm of current diis error:  2.2631    
          max. resid. norm for Fia-block=  1.605D-01 for orbital      2a         
          max. resid. fock norm         =  3.091D-01 for orbital    184a         

 ITERATION  ENERGY          1e-ENERGY        2e-ENERGY     NORM[dD(SAO)]  TOL
   3  -228.90619393571    -552.54120018     202.28564693    0.000D+00 0.102D-10
                            Exc = -29.2590679818     Coul =  231.544714914    
                              N = 31.999949908    
                            current damping = 0.550
 
          Norm of current diis error:  1.0319    
          max. resid. norm for Fia-block=  6.502D-02 for orbital      2a         
          max. resid. fock norm         =  8.260D-02 for orbital    178a         

 ITERATION  ENERGY          1e-ENERGY        2e-ENERGY     NORM[dD(SAO)]  TOL
   4  -228.93959625185    -552.16980134     201.88084578    0.000D+00 0.102D-10
                            Exc = -29.1996728561     Coul =  231.080518633    
                              N = 31.999946529    
                            current damping = 0.600
 
          Norm of current diis error: 0.41905    
          max. resid. norm for Fia-block=  3.146D-02 for orbital      6a         
          max. resid. fock norm         =  5.728D-02 for orbital    178a         

 ITERATION  ENERGY          1e-ENERGY        2e-ENERGY     NORM[dD(SAO)]  TOL
   5  -228.94390871312    -552.59437558     202.30110755    0.000D+00 0.102D-10
                            Exc = -29.2608436712     Coul =  231.561951219    
                              N = 31.999945567    
                            current damping = 0.650
 
          Norm of current diis error: 0.25676    
          max. resid. norm for Fia-block=  1.204D-02 for orbital     15a         
          max. resid. fock norm         =  2.514D-02 for orbital    283a         
          mo-orthogonalization: Cholesky decomposition

 ITERATION  ENERGY          1e-ENERGY        2e-ENERGY     NORM[dD(SAO)]  TOL
   6  -228.94612921221    -552.59823758     202.30274905    0.000D+00 0.102D-10
                            Exc = -29.2562008981     Coul =  231.558949949    
                              N = 31.999945594    
                            current damping = 0.500
 
          Norm of current diis error: 0.98695E-01
          max. resid. norm for Fia-block=  4.712D-03 for orbital     14a         
          max. resid. fock norm         =  1.241D-02 for orbital    283a         

 ITERATION  ENERGY          1e-ENERGY        2e-ENERGY     NORM[dD(SAO)]  TOL
   7  -228.94643240702    -552.48648821     202.19069649    0.000D+00 0.102D-10
                            Exc = -29.2440909831     Coul =  231.434787476    
                              N = 31.999944730    
                            current damping = 0.550
 
          Norm of current diis error: 0.36235E-01
          max. resid. norm for Fia-block=  1.822D-03 for orbital      5a         
          max. resid. fock norm         =  2.740D-03 for orbital    178a         

 ITERATION  ENERGY          1e-ENERGY        2e-ENERGY     NORM[dD(SAO)]  TOL
   8  -228.94646905710    -552.52656070     202.23073233    0.000D+00 0.102D-10
                            Exc = -29.2498754947     Coul =  231.480607823    
                              N = 31.999944813    
                            current damping = 0.600
 
          Norm of current diis error: 0.90842E-02
          max. resid. norm for Fia-block=  4.369D-04 for orbital      8a         
          max. resid. fock norm         =  6.776D-04 for orbital      9a         

 ITERATION  ENERGY          1e-ENERGY        2e-ENERGY     NORM[dD(SAO)]  TOL
   9  -228.94647179828    -552.54102153     202.24519042    0.000D+00 0.102D-10
                            Exc = -29.2510109073     Coul =  231.496201328    
                              N = 31.999944775    
                            current damping = 0.450
 
          Norm of current diis error: 0.39036E-02
          max. resid. norm for Fia-block=  2.749D-04 for orbital     16a         
          max. resid. fock norm         =  4.133D-04 for orbital    284a         

 ITERATION  ENERGY          1e-ENERGY        2e-ENERGY     NORM[dD(SAO)]  TOL
  10  -228.94647184475    -552.53328352     202.23745236    0.000D+00 0.102D-10
                            Exc = -29.2503087781     Coul =  231.487761137    
                              N = 31.999944771    
                            current damping = 0.500
 
          Norm of current diis error: 0.40395E-02
          max. resid. norm for Fia-block=  1.784D-04 for orbital     15a         
          max. resid. fock norm         =  4.737D-04 for orbital    283a         
          mo-orthogonalization: Cholesky decomposition

 ITERATION  ENERGY          1e-ENERGY        2e-ENERGY     NORM[dD(SAO)]  TOL
  11  -228.94647231296    -552.53422917     202.23839754    0.000D+00 0.102D-10
                            Exc = -29.2505467466     Coul =  231.488944284    
                              N = 31.999944760    
                            current damping = 0.550
 
          Norm of current diis error: 0.14729E-02
          max. resid. norm for Fia-block=  8.625D-05 for orbital      8a         
          max. resid. fock norm         =  1.258D-04 for orbital    247a         

 ITERATION  ENERGY          1e-ENERGY        2e-ENERGY     NORM[dD(SAO)]  TOL
  12  -228.94647234740    -552.53720106     202.24136940    0.000D+00 0.102D-10
                            Exc = -29.2508754194     Coul =  231.492244818    
                              N = 31.999944768    
                            current damping = 0.400
 
          Norm of current diis error: 0.87947E-03
          max. resid. norm for Fia-block=  3.214D-05 for orbital      8a         
          max. resid. fock norm         =  4.162D-05 for orbital    186a         

 ITERATION  ENERGY          1e-ENERGY        2e-ENERGY     NORM[dD(SAO)]  TOL
  13  -228.94647236619    -552.53668287     202.24085119    0.000D+00 0.102D-10
                            Exc = -29.2507515514     Coul =  231.491602737    
                              N = 31.999944761    
                            current damping = 0.450
 
          Norm of current diis error: 0.29192E-03
          max. resid. norm for Fia-block=  7.643D-06 for orbital     11a         
          max. resid. fock norm         =  1.166D-05 for orbital     17a         

 ENERGY CONVERGED !

          Overall gridpoints after grid construction =         79226

 ITERATION  ENERGY          1e-ENERGY        2e-ENERGY     NORM[dD(SAO)]  TOL
  14  -228.94643573258    -552.53648606     202.24069102    0.000D+00 0.102D-10
                            Exc = -29.2507108127     Coul =  231.491401829    
                              N = 32.000001458    
                            current damping = 0.300
 
          Norm of current diis error: 0.58344E-04
          max. resid. norm for Fia-block=  3.194D-06 for orbital     15a         
          max. resid. fock norm         =  7.102D-06 for orbital    284a         

 End of SCF iterations

   convergence criteria satisfied after    14 iterations


                  ------------------------------------------ 
                 |  total energy      =   -228.94643573258  |
                  ------------------------------------------ 
                 :  kinetic energy    =    228.09617759013  :
                 :  potential energy  =   -457.04261332271  :
                 :  virial theorem    =      1.99628621367  :
                 :  wavefunction norm =      1.00000000000  :
                  .......................................... 


 orbitals $scfmo  will be written to file mos

    irrep                 12a         13a         14a         15a         16a   
 eigenvalues H         -0.37187    -0.35482    -0.34624    -0.28607    -0.23288
            eV         -10.1191     -9.6553     -9.4218     -7.7845     -6.3370
 occupation              2.0000      2.0000      2.0000      2.0000      2.0000 

    irrep                 17a         18a         19a         20a         21a   
 eigenvalues H         -0.03797    -0.01210     0.01887     0.06580     0.06916
            eV          -1.0333     -0.3292      0.5135      1.7904      1.8820
 
 
 
 
 ==============================================================================
                           electrostatic moments
 ==============================================================================

 reference point for electrostatic moments:    0.00000   0.00000   0.00000

 
              nuc           elec       ->  total
 ------------------------------------------------------------------------------
                          charge      
 ------------------------------------------------------------------------------
          32.000000     -32.000000      -0.000000
 
 ------------------------------------------------------------------------------
                       dipole moment  
 ------------------------------------------------------------------------------
   x     -71.171249      70.832358      -0.338891
   y      73.517227     -74.182711      -0.665484
   z      16.474643     -16.635355      -0.160712
 
   | dipole moment | =     0.7639 a.u. =     1.9416 debye 
 
 ------------------------------------------------------------------------------
                     quadrupole moment
 ------------------------------------------------------------------------------
  xx     270.045944    -283.716464     -13.670520
  yy     247.153783    -270.309528     -23.155745
  zz      18.225679     -35.938311     -17.712632
  xy    -169.498494     167.305612      -2.192882
  xz     -37.578488      37.071232      -0.507256
  yz      55.435362     -56.822992      -1.387629
 
     1/3  trace=     -18.179632
     anisotropy=       9.430932
 
 ==============================================================================
 


    ------------------------------------------------------------------------
         total  cpu-time :  55.84 seconds
         total wall-time :  11.65 seconds
    ------------------------------------------------------------------------

   ****  ridft : all done  ****


    2019-03-12 22:19:39.352 

