
   OpenMP run-time library returned nthreads = 28

 ricc2 (c-13-33) : TURBOMOLE V7.3 ( 22142 ) 4 Jul 2018 at 18:12:42
 Copyright (C) 2018 TURBOMOLE GmbH, Karlsruhe


    2019-04-01 22:19:35.080 



                              R I C C 2 - PROGRAM

                          the quantum chemistry groups
                             at the universities in
                           Karlsruhe, Bochum & Mainz
                                   Germany



   *-----------------------------------------------------------------------*
   |                     program will use 28 thread(s)                     |
   *-----------------------------------------------------------------------*


              +--------------------------------------------------+
              | Atomic coordinate, charge and isotop information |
              +--------------------------------------------------+

                    atomic coordinates            atom    charge  isotop
          1.37195489    0.04734424    6.42164927    c      6.000     0
          2.34916579   -1.59858435    5.70879432    h      1.000     0
          2.51639383    1.53454745    7.22915634    h      1.000     0
         -1.13906879    0.23743264    6.32858606    c      6.000     0
         -2.29558664   -1.25068812    5.54075788    h      1.000     0
         -2.10627785    1.88351561    7.05424046    h      1.000     0
 
       center of nuclear mass  :    0.11636842    0.14236102    6.37628460
       center of nuclear charge:    0.11631323    0.14234074    6.37714756

              +--------------------------------------------------+
              |               basis set information              |
              +--------------------------------------------------+

              we will work with the 1s 3p 5d 7f 9g ... basis set
              ...i.e. with spherical basis functions...

   type   atoms  prim   cont   basis
   ---------------------------------------------------------------------------
    c        2     50     30   cc-pVTZ   [4s3p2d1f|18s5p2d1f]
    h        4     16     14   cc-pVTZ   [3s2p1d|5s2p1d]
   ---------------------------------------------------------------------------
   total:    6    164    116
   ---------------------------------------------------------------------------

   total number of primitive shells          :   34
   total number of contracted shells         :   44
   total number of cartesian basis functions :  130
   total number of SCF-basis functions       :  116


 symmetry group of the molecule :   c1 

 the group has the following generators :
   c1(z)

    1 symmetry operations found

 there are 1 real representations :   a   


   =========================================================================


     restricted closed shell calculation for the wavefunction models:
               MP2        - Second Order Moeller Plesset PT


     global parameters for ricc2 program:

        hard restart (reuse of interm.) :  disabled
        soft restart (reuse of vectors) :  disabled
        threshold for vector function   :    0.100000E-05
        convergence threshold energy    :    0.100000E-06
        linear dependence threshold     :    0.100000E-13
        global print level              :      1
        maximum number of iterations    :   300
        maximum number DIIS vectors     :    10
        max. dim. of reduced space      :   100
        core memory limit (MB)          : *****


     MP2 energy only: Energy will be calculated directly from T2 amplitudes!

     Scratch Directory : 


   =========================================================================

    der. integral neglect threshold  :  0.10E-07
    integral neglect threshold       :  0.26E-10
    integral storage threshold THIZE :  0.10E-04
    integral storage threshold THIME :         5


                  +------------------------------------------+
                  |     Auxiliary basis set information      |
                  +------------------------------------------+

              we will work with the 1s 3p 5d 7f 9g ... basis set
              ...i.e. with spherical basis functions...

   type   atoms  prim   cont   basis
   ---------------------------------------------------------------------------
    c        2     81     81   cc-pVTZ   [8s6p5d3f1g|8s6p5d3f1g]
    h        4     30     30   cc-pVTZ   [4s3p2d1f|4s3p2d1f]
   ---------------------------------------------------------------------------
   total:    6    282    282
   ---------------------------------------------------------------------------

   total number of primitive shells          :   33
   total number of contracted shells         :   86
   total number of cartesian basis functions :  342
   total number of SCF-basis functions       :  282


 maximum number of shells which are related by symmetry :  1


 The symmetry information takes   1 MB

*---------------------------------------------------------------------*
|               simplified C1 algorithm will be applied               |
*---------------------------------------------------------------------*
  MOs are in ASCII format !


 reading orbital data $scfmo  from file mos
 orbital characterization : scfconv=9



              +--------------------------------------------+
              | list of orbitals that will be kept frozen: |
              +--------------------------------------------+
              |   irrep   index      energy     occ/vir    |
              +--------------------------------------------+
              |   a         1      -11.2294     occupied   |
              |   a         2      -11.2277     occupied   |
              +--------------------------------------------+



   Molecular Orbital Statistic:
   ============================

   -----------------------------
   orbitals in total:
   -----------------------------
    frozen occupied :      2
    active occupied :      6
    active virtual  :    108
    frozen virtual  :      0
    all together    :    116
   -----------------------------


     time in riccmos       cpu:  1.48 sec    wall:  0.07 sec    ratio: 22.1

     total memory allocated for calculation of (Q|P)**(-1/2) : 1 MiB


     calculation of (P|Q) ...
     time in lp2sym        cpu:  0.86 sec    wall:  0.03 sec    ratio: 25.2


     calculation of the Cholesky decomposition of (P|Q)**(-1) ...
     time in invmetri      cpu:  0.68 sec    wall:  0.02 sec    ratio: 27.1

   threshold for RMS(d[D]) in SCF was     :  0.10E-06
   integral neglect threshold             :  0.26E-10
   derivative integral neglect threshold  :  0.10E-07


   =========================================================================

     Energy of reference wave function is   -78.0638102963300
     Maximum orbital residual is           0.5588106366889E-07


     Number of symmetry-nonredundant auxiliary basis functions:      282

     Block lengths for integral files:
        frozen occupied (BOI):        1 MiB
        active occupied (BJI):        1 MiB
        active virtual  (BAI):        1 MiB
        frozen virtual  (BGI):        0 MiB
               general  (BTI):        1 MiB

   =========================================================================




   **************************************************************************
   *                                                                        *
   *          OPTIMIZATION OF THE GROUND STATE CLUSTER AMPLITUDES           *
   *                                                                        *
   **************************************************************************


   Iter.   MP2 energy       Norm(Omega)   Norm(t1)  Norm(t2)     cpu    wall
   ...........................................................................
    1    -78.3992402156     ------          0.00000   0.19814    0.01    0.00
   ...........................................................................


     time in total         cpu:  0.73 sec    wall:  0.03 sec    ratio: 21.3


     **********************************************************************
     *                                                                    *
     *   RHF  energy                             :    -78.0638102963      *
     *   MP2 correlation energy (doubles)        :     -0.3354299193      *
     *                                                                    *
     *   Final MP2 energy                        :    -78.3992402156      *
     *                                                                    *
     *    E(S)   =     -0.2290131758      E(T)   =     -0.1064167434      *
     *    E(OS)  =     -0.2644854237      E(SS)  =     -0.0709444956      *
     *                                                                    *
     *   SCS-MP2 energy                          :    -78.4048409699      *
     *   (computed with  C(OS) =   1.2000  and  C(SS) =   0.3333)         *
     *                                                                    *
     *   SOS-MP2 energy                          :    -78.4076413471      *
     *   (computed with  C(OS) =   1.3000)                                *
     *                                                                    *
     *   Norm of MP1 T2 amplitudes               :      0.1981382110      *
     *                                                                    *
     **********************************************************************



    ------------------------------------------------------------------------
         total  cpu-time :  12.19 seconds
         total wall-time :   0.59 seconds
    ------------------------------------------------------------------------

   ****  ricc2 : all done  ****


    2019-04-01 22:19:35.581 

