
OPTIMIZATION CYCLE 19
Sun Feb  7 17:34:09 PST 2016
 operating system is UNIX !
 hostname is         c-9-334.local

 statpt (c-9-334.local) : TURBOMOLE V7.0.2( ) 8 Jan 2016 at 10:54:38
 Copyright (C) 2016 TURBOMOLE GmbH, Karlsruhe


    2016-02-07 17:34:09.043 



                           this is S T A T P T   


                     hessian and coordinate update for
                          stationary point search 

                     by barbara unterreiner, marek sierka,
                           and reinhart ahlrichs

                          quantum chemistry group
                          universitaet  karlsruhe
                                  germany


  Keyword $statpt not found - using default options
 
        ***************  Stationary point options ******************
        ************************************************************
           Maximum allowed trust radius:           3.000000E-01
           Minimum allowed trust radius:           1.000000E-03
           Initial trust radius:                   1.500000E-01
           GDIIS used if gradient norm <           1.000000E-02
           Number of previous steps for GDIIS:       5
           Hessian update method:                  BFGS
                        *** Convergence criteria ***                
           Threshold for energy change:            1.000000E-07
           Threshold for max displacement element: 1.000000E-03
           Threshold for max gradient element :    1.000000E-04
           Threshold for RMS of displacement:      5.000000E-04
           Threshold for RMS of gradient:          5.000000E-04
        ************************************************************
 
     Number of symmetry restricted degrees of freedom:    75
     Constituted by:     3 translational degrees of freedom
                         3 rotational degrees of freedom
                      69 internal degrees of freedom

  *************************************************************************
   ATOM                      CARTESIAN COORDINATES
    1 c      -2.67380157313926      0.28439843456144     -0.72542052043334
    2 c      -4.72178924310914     -1.33096871938904     -0.69893667309128
    3 c      -4.40532762083611     -3.97060796109295     -0.72301937497028
    4 c      -2.01671437293798     -5.02849502607371     -0.77890322101737
    5 c       0.05218016396526     -3.39894766653753     -0.81360391131313
    6 c      -0.23704905909727     -0.75481947833386     -0.78941654724527
    7 n       2.60111182371547     -3.90260447627648     -0.88580019764670
    8 c       2.23314332878085      0.33856414712854     -0.85570437514796
    9 c       3.90075681914285     -1.64495385223274     -0.91812281443585
   10 o      -7.17645753985527     -0.47871910973654     -0.63552169436160
   11 h       3.38487934378496     -5.62548679978280     -0.94797138530970
   12 c       2.90479139381958      3.08046748434047     -0.85840824564919
   13 c       2.96184043756218      4.24431782538859      1.78125615227013
   14 n       0.43980525138302      4.13895925577725      2.93453296786315
   15 h      -2.93683043302535      2.30474631165063     -0.66284601332144
   16 h      -6.06691236892047     -5.14071364488778     -0.69496414417070
   17 h      -1.78032022865234     -7.05094358693828     -0.79724778981428
   18 h       5.92922297647224     -1.62407124873807     -1.00514713517143
   19 h      -7.11109807514986      1.34220294178440     -0.62096101992685
   20 h       4.76030573618417      3.32750282211459     -1.72536663213590
   21 h       1.54901931666457      4.13359663672802     -2.00269813097217
   22 h       3.49643242075564      6.22626087999967      1.62150311967404
   23 h       4.41714727059354      3.28377874609525      2.89623799821349
   24 h       0.51179876750938      4.94817878600090      4.67144352800846
   25 h      -0.01613453561079      2.29835729844991      3.23508606010544
  *************************************************************************
   ATOM                      CARTESIAN GRADIENTS  
    1 c       0.00000400271050     -0.00000055004480      0.00000044919040
    2 c      -0.00000134095018      0.00000108710191     -0.00000046898001
    3 c      -0.00000018735747     -0.00000018961029     -0.00000093577495
    4 c       0.00000108930332      0.00000050716989     -0.00000345211731
    5 c      -0.00000051955032     -0.00000170650321      0.00000877713345
    6 c      -0.00000170783087      0.00000091092977     -0.00001162250642
    7 n      -0.00000036264235      0.00000027030738      0.00000017957434
    8 c       0.00000425403979      0.00000052157429      0.00001259863837
    9 c      -0.00000126940413      0.00000028824894     -0.00000150916147
   10 o       0.00000050747061     -0.00000019483362      0.00000236322724
   11 h       0.00000051378298     -0.00000078108769     -0.00000050861999
   12 c       0.00000006516345     -0.00000399651355     -0.00000643943930
   13 c      -0.00000504915282      0.00000485711233     -0.00000018792867
   14 n       0.00000530350654     -0.00000359665253      0.00000254991688
   15 h      -0.00000268853351      0.00000105763868      0.00000115370729
   16 h      -0.00000082484564     -0.00000105504027      0.00000012507987
   17 h      -0.00000098726388     -0.00000124909310      0.00000008772415
   18 h       0.00000093531903     -0.00000041850666     -0.00000130004505
   19 h      -0.00000056535786      0.00000095205944     -0.00000073106404
   20 h      -0.00000007405935      0.00000176229926     -0.00000023915839
   21 h      -0.00000014952405      0.00000174510235     -0.00000010499017
   22 h       0.00000045245477      0.00000005528437      0.00000047852736
   23 h       0.00000111577686     -0.00000197930604      0.00000045804830
   24 h      -0.00000143883824      0.00000093124002     -0.00000046587398
   25 h      -0.00000139428172      0.00000062251174     -0.00000105162484
  *************************************************************************

  norm of actual CARTESIAN gradient:  2.51537E-05
  norm of actual INTERNAL  gradient:  1.78013E-05

  ENERGY =    -573.3898605378 a.u.; # of cycle =   19

  Approximate Hessian read from $hessapprox data section

  Hessian updated according to BFGS formula
  Number of zero Hessian eigenvalues:   0
  Number of structures for GDIIS interpolation:    5
  GDIIS step:     0.000211

  Transforming internal coordinate displacements to Cartesian space
      Iteration   1 residual norm     2.114344E-04
      Iteration   2 residual norm     1.764570E-08
      Iteration   3 residual norm     1.496332E-13
      Transformation converged
      Residual norm:    1.496332E-13 after    3 iterations

      ****************************************************************** 
                          CONVERGENCE INFORMATION

                               Converged?     Value      Criterion
             Energy change         yes      0.0000000   0.0000001
             RMS of displacement   yes      0.0000255   0.0005000
             RMS of gradient       yes      0.0000021   0.0005000
             MAX displacement      yes      0.0001044   0.0010000
             MAX gradient          yes      0.0000084   0.0001000
      ****************************************************************** 


    ------------------------------------------------------------------------
         total  cpu-time :   0.06 seconds
         total wall-time :   0.06 seconds
    ------------------------------------------------------------------------


   ****  statpt : all done  ****


    2016-02-07 17:34:09.086 

fine, there is no data group "$actual step"
next step = ridft
 operating system is UNIX !
 hostname is         c-9-334.local

 ridft (c-9-334.local) : TURBOMOLE V7.0( ) 18 Nov 2015 at 09:57:41
 Copyright (C) 2015 TURBOMOLE GmbH, Karlsruhe


    2016-02-07 17:34:09.156 



                                  r i d f t

                        DFT program with RI approximation 
                                for coulomb part 




                                                 
                                 References:     
                                                 
          TURBOMOLE:                             
              R. Ahlrichs, M. Baer, M. Haeser, H. Horn, and
              C. Koelmel
              Electronic structure calculations on workstation
              computers: the program system TURBOMOLE
              Chem. Phys. Lett. 162: 165 (1989)
          Density Functional:                              
              O. Treutler and R. Ahlrichs                      
              Efficient Molecular Numerical Integration Schemes
              J. Chem. Phys. 102: 346 (1995)                   
          Parallel Version:                                
              Performance of parallel TURBOMOLE for Density    
              Functional Calculations                          
              M. v. Arnim and R. Ahlrichs                      
              J. Comp. Chem. 19: 1746 (1998)                   
          RI-J Method:                                     
              Auxiliary Basis Sets to approximate Coulomb      
              Potentials                                       
              Chem. Phys. Lett. 240: 283 (1995)                
              K. Eichkorn, O. Treutler, H. Oehm, M. Haeser     
              and R. Ahlrichs                                  
              Chem. Phys. Lett. 242: 652 (1995)                
                                                           
              Auxiliary Basis Sets for Main Row Atoms and their
              Use to approximate Coulomb Potentials            
              K. Eichkorn, F. Weigend, O. Treutler and         
              R. Ahlrichs                                      
              Theo. Chem. Acc. 97: 119 (1997)                   
                                                           
              Accurate Coulomb-fitting basis sets for H to Rn 
              F. Weigend                                        
              Phys. Chem. Chem. Phys. 8: 1057 (2006)            
                                                           
          Multipole accelerated RI-J (MARI-J):             
              Fast evaluation of the Coulomb potential for     
              electron densities using multipole accelerated   
              resolution of identity approximation             
              M. Sierka, A. Hogekamp and R. Ahlrichs           
              J. Chem. Phys. 118: 9136 (2003)                  
          RI-JK Method:                                     
              A fully direct RI-HF algorithm: Implementation,
              optimised auxiliary basis sets, demonstration of
              accuracy and efficiency                         
              F. Weigend                                      
              Phys. Chem. Chem. Phys. 4: 4285 (2002)           
          Two-component HF and DFT with spin-orbit coupling:  
              Self-consistent treatment of spin-orbit         
              interactions with efficient Hartree-Fock and    
              density functional methods                      
              M. K. Armbruster, F. Weigend, C. van Wüllen and 
              W. Klopper                                      
              Phys. Chem. Chem. Phys. 10: 1748 (2008)         
          Relativistic all-electron 2c calculations           
              An efficient implementation of two-component    
              relativistic exact-decoupling methods for large 
              molecules                                       
              D. Peng, N. Middendorf, F. Weigend, M. Reiher   
              J. Chem. Phys. 138, 184105 (2013)               
                                         


 


              +--------------------------------------------------+
              |      general information about current run       |
              +--------------------------------------------------+

 

 DENSITY CONVERGENCE CHECK SWITCHED ON !
 SCF CONVERGENCE IF RMS(delta[D]) <     0.1000000000E-06

 PBE functional
 exchange:    LDA + PBE
 correlation: LDA (PW) + PBE
 A DFT calculation using the RI-J approximation will be carried out.
 Allocatable memory for RI due to $ricore (MB):       15000


              +--------------------------------------------------+
              | Atomic coordinate, charge and isotop information |
              +--------------------------------------------------+

                    atomic coordinates            atom    charge  isotop
         -2.67380579    0.28440804   -0.72547973    c      6.000     0
         -4.72178236   -1.33096837   -0.69892179    c      6.000     0
         -4.40530560   -3.97060379   -0.72287291    c      6.000     0
         -2.01668950   -5.02847711   -0.77878398    c      6.000     0
          0.05219046   -3.39891954   -0.81366046    c      6.000     0
         -0.23704880   -0.75479633   -0.78945499    c      6.000     0
          2.60111939   -3.90257111   -0.88589247    n      7.000     0
          2.23313489    0.33859283   -0.85585935    c      6.000     0
          3.90075423   -1.64491849   -0.91825281    c      6.000     0
         -7.17645554   -0.47873090   -0.63558726    o      8.000     0
          3.38489040   -5.62545015   -0.94803407    h      1.000     0
          2.90480175    3.08048901   -0.85839412    c      6.000     0
          2.96184022    4.24421551    1.78132067    c      6.000     0
          0.43976309    4.13899037    2.93451847    n      7.000     0
         -2.93683967    2.30475460   -0.66303342    h      1.000     0
         -6.06688002   -5.14071466   -0.69473220    h      1.000     0
         -1.78027978   -7.05092067   -0.79704086    h      1.000     0
          5.92921893   -1.62402836   -1.00522836    h      1.000     0
         -7.11110293    1.34218952   -0.62108871    h      1.000     0
          4.76032451    3.32754875   -1.72532139    h      1.000     0
          1.54905193    4.13368318   -2.00264585    h      1.000     0
          3.49657216    6.22612602    1.62166537    h      1.000     0
          4.41704486    3.28353710    2.89630778    h      1.000     0
          0.51177129    4.94815530    4.67145209    h      1.000     0
         -0.01628814    2.29840924    3.23502036    h      1.000     0
 
       center of nuclear mass  :   -0.51120833   -0.53410804   -0.23890537
       center of nuclear charge:   -0.44680262   -0.45571800   -0.20275694

              +--------------------------------------------------+
              |               basis set information              |
              +--------------------------------------------------+

              we will work with the 1s 3p 5d 7f 9g ... basis set
              ...i.e. with spherical basis functions...

   type   atoms  prim   cont   basis
   ---------------------------------------------------------------------------
    c       10     50     30   cc-pVTZ   [4s3p2d1f|18s5p2d1f]
    n        2     50     30   cc-pVTZ   [4s3p2d1f|18s5p2d1f]
    o        1     50     30   cc-pVTZ   [4s3p2d1f|18s5p2d1f]
    h       12     16     14   cc-pVTZ   [3s2p1d|5s2p1d]
   ---------------------------------------------------------------------------
   total:   25    842    558
   ---------------------------------------------------------------------------

   total number of primitive shells          :   86
   total number of contracted shells         :  202
   total number of cartesian basis functions :  635
   total number of SCF-basis functions       :  558


 integral neglect threshold       :  0.52E-13
 integral storage threshold THIZE :  0.10E-04
 integral storage threshold THIME :         5

 RI-J AUXILIARY BASIS SET information:

              we will work with the 1s 3p 5d 7f 9g ... basis set
              ...i.e. with spherical basis functions...

   type   atoms  prim   cont   basis
   ---------------------------------------------------------------------------
    c       10     70     49   cc-pVTZ   [6s4p3d1f1g|12s5p4d2f1g]
    n        2     70     49   cc-pVTZ   [6s4p3d1f1g|12s5p4d2f1g]
    o        1     70     49   cc-pVTZ   [6s4p3d1f1g|12s5p4d2f1g]
    h       12     16     11   cc-pVTZ   [3s1p1d|5s2p1d]
   ---------------------------------------------------------------------------
   total:   25   1102    769
   ---------------------------------------------------------------------------

   total number of primitive shells          :   80
   total number of contracted shells         :  255
   total number of cartesian basis functions :  937
   total number of SCF-basis functions       :  769


 symmetry group of the molecule :   c1 

 the group has the following generators :
   c1(z)

    1 symmetry operations found

 there are 1 real representations :   a   

 maximum number of shells which are related by symmetry :  1


    mo occupation :
   irrep   mo's   occupied
    a      558       47
 
 number of basis functions   :          558
 number of occupied orbitals :           47
 
  
           ------------------
           density functional
           ------------------
 PBE functional
 exchange:    LDA + PBE
 correlation: LDA (PW) + PBE
 iterations will be done with small grid
  
 spherical integration : Lebedev's spherical grid
 spherical gridsize    :           5
    i.e. gridpoints    :         590
 value for diffuse not defined
 radial integration    : Chebyshev 2nd kind (scaling 3)
 radial gridsize       :           8
 integration cells     :          25
 partition function    : becke
 partition sharpness   :           3
  

 biggest AO integral is expected to be     4.866064444
  
           ------------------------
               RI-J - INFORMATION
           ------------------------
 Contributions to RI integral batches: 
  neglected integral batches:        3940
  direct contribution:                  0
  memory contribution:       16563
 Memory core needed for (P|Q) and Cholesky      5 MByte
 Memory core minimum needed except of (P|Q)     2 MByte
 Total minimum memory core needed (sum)         6 MByte
  
 ****************************************
 Memory allocated for RI-J  1128 MByte
 ****************************************
                                            

          ------------------------
          nuclear repulsion energy  :   774.619568300    
          ------------------------

 
          -----------------
          -S,T+V- integrals
          -----------------

 1e-integrals will be neglected if expon. factor < 0.526293E-14
 
   Difference densities algorithm switched on.
   The maximal number of linear combinations of
   difference densities is          20 .

 automatic virtual orbital shift switched on 
      shift if e(lumo)-e(homo) < 0.10000000    


 DIIS switched on: error vector is FDS-SDF
 Max. Iterations for DIIS is     :   4
 DIIS matrix (see manual) 
    Scaling factor of diagonals  :  1.200
    threshold for scaling factor :  0.000

 scf convergence criterion : increment of total energy < .1000000D-08
                  and increment of one-electron energy < .1000000D-05

  MOs are in ASCII format !


 reading orbital data $scfmo  from file mos . 

 orbital characterization : scfconv=9
 

 DSCF restart information will be dumped onto file mos


 Starting SCF iterations

          Overall gridpoints after grid construction =        120341

 ITERATION  ENERGY          1e-ENERGY        2e-ENERGY     RMS[dD(SAO)]   TOL
   1  -572.51068726221    -2313.9266735     966.79641795    0.000D+00 0.525D-13
                            Exc = -80.6068824592     Coul =  1047.40330041    
                              N = 93.999870659    
                            current damping = 0.700
 
          max. resid. norm for Fia-block=  2.247D-05 for orbital      8a         
          max. resid. fock norm         =  2.143D-04 for orbital    245a         

 ITERATION  ENERGY          1e-ENERGY        2e-ENERGY     RMS[dD(SAO)]   TOL
   2  -572.51068727059    -2313.9267054     966.79644981    0.622D-06 0.333D-13
                            Exc = -80.6068837510     Coul =  1047.40333356    
                              N = 93.999870660    
                            current damping = 0.650
 
          Norm of current diis error: 0.14843E-03
          max. resid. norm for Fia-block=  9.214D-06 for orbital      8a         
          max. resid. fock norm         =  8.829D-05 for orbital    245a         

 ITERATION  ENERGY          1e-ENERGY        2e-ENERGY     RMS[dD(SAO)]   TOL
   3  -572.51068727199    -2313.9266912     966.79643562    0.274D-06 0.256D-13
                            Exc = -80.6068855706     Coul =  1047.40332119    
                              N = 93.999870661    
                            current damping = 0.600
 
          Norm of current diis error: 0.66808E-04
          max. resid. norm for Fia-block=  3.920D-06 for orbital     45a         
          max. resid. fock norm         =  3.481D-05 for orbital    245a         

 ITERATION  ENERGY          1e-ENERGY        2e-ENERGY     RMS[dD(SAO)]   TOL
   4  -572.51068727221    -2313.9267015     966.79644593    0.111D-06 0.244D-13
                            Exc = -80.6068821416     Coul =  1047.40332807    
                              N = 93.999870661    
                            current damping = 0.650
 
          Norm of current diis error: 0.42961E-04
          max. resid. norm for Fia-block=  1.550D-06 for orbital     46a         
          max. resid. fock norm         =  1.311D-05 for orbital    245a         

 ENERGY & DENSITY CONVERGED !

          Overall gridpoints after grid construction =        386771

 ITERATION  ENERGY          1e-ENERGY        2e-ENERGY     RMS[dD(SAO)]   TOL
   5  -572.51068576575    -2313.9267007     966.79644662    0.509D-07 0.233D-13
                            Exc = -80.6068829279     Coul =  1047.40332955    
                              N = 94.000000180    
                            current damping = 0.700
 
          Norm of current diis error: 0.13155E-04
          max. resid. norm for Fia-block=  6.535D-07 for orbital     45a         
          max. resid. fock norm         =  5.155D-06 for orbital    245a         

 End of SCF iterations

   convergence criteria satisfied after    5 iterations


                  ------------------------------------------ 
                 |  total energy      =   -572.51068576575  |
                  ------------------------------------------ 
                 :  kinetic energy    =    569.14904358852  :
                 :  potential energy  =  -1141.65972935426  :
                 :  virial theorem    =      1.99412824553  :
                 :  wavefunction norm =      1.00000000000  :
                  .......................................... 


 orbitals $scfmo  will be written to file mos

    irrep                 43a         44a         45a         46a         47a   
 eigenvalues H         -0.26612    -0.24171    -0.19690    -0.18186    -0.17015
            eV          -7.2416     -6.5773     -5.3578     -4.9486     -4.6300
 occupation              2.0000      2.0000      2.0000      2.0000      2.0000 

    irrep                 48a         49a         50a         51a         52a   
 eigenvalues H         -0.04106     0.00489     0.01378     0.01492     0.02457
            eV          -1.1174      0.1332      0.3749      0.4060      0.6686
 
 
 
 
 ==============================================================================
                           electrostatic moments
 ==============================================================================

 reference point for electrostatic moments:    0.00000   0.00000   0.00000

 
              nuc           elec       ->  total
 ------------------------------------------------------------------------------
                          charge      
 ------------------------------------------------------------------------------
          94.000000     -94.000000      -0.000000
 
 ------------------------------------------------------------------------------
                       dipole moment  
 ------------------------------------------------------------------------------
   x     -41.999446      43.073183       1.073737
   y     -42.837492      42.584397      -0.253095
   z     -19.059152      19.339346       0.280194
 
   | dipole moment | =     1.1382 a.u. =     2.8930 debye 
 
 ------------------------------------------------------------------------------
                     quadrupole moment
 ------------------------------------------------------------------------------
  xx    1205.909390   -1261.566071     -55.656681
  yy     965.469797   -1015.192224     -49.722427
  zz     176.639917    -234.500875     -57.860957
  xy     323.038349    -328.169180      -5.130831
  xz      86.282300     -86.746371      -0.464071
  yz     263.640056    -262.301091       1.338965
 
     1/3  trace=     -54.413355
     anisotropy=      11.753969
 
 ==============================================================================
 
 


    ------------------------------------------------------------------------
         total  cpu-time :  34.51 seconds
         total wall-time :  34.52 seconds
    ------------------------------------------------------------------------


   ****  ridft : all done  ****


    2016-02-07 17:34:43.676 

fine, there is no data group "$actual step"
next step = rirpa
 
 
    *************************************************************************
    *************************** PROGRAM RIRPA *******************************
    ******                                                             ******
    ******              H. Eshuis, J. E. Bates and F. Furche           ******
    ******                                                             ******
    ****** Nov 2011                                                    ******
    ****** Copyright TURBOMOLE GmbH                                    ******
    *************************************************************************
    
    
                                References:                                  
    
                   RIRPA:                                                    
                     H. Eshuis, J. Yarkony and F. Furche                     
                     Fast computation of molecular random phase              
                     approximation correlation energies using resolution     
                     of the identity imaginary frequency integration         
                     J. Chem. Phys. 132: 234114 (2010)                       
    
                     H. Eshuis, J. E. Bates and F. Furche                    
                     Electron correlation methods based on                   
                     the random phase approximation                          
                     Theor. Chem. Acc.  131: 1084 (2012)                     
    
                   TWO-COMPONENT RIRPA:                                      
                     M. Kuehn                                                
                     Correlation energies from the                           
                     two-component random-phase approximation                
                     J. Chem. Theory Comput. 10: 623 (2014)                  
    
                   RIRPA GRADIENTS:                                          
                     Asbjoern M. Burow, Jefferson E. Bates, Filipp Furche*,  
                     and Henk Eshuis                                         
                     Analytical First-Order Molecular Properties and Forces  
                     within the Adiabatic Connection Random Phase            
                     Approximation                                           
                     J. Chem. Theory Comput. (2013, ASAP),                   
                     DOI: 10.1021/ct4008553                                  
    
    
    
 hostname is         c-9-334.local

 rirpa (c-9-334.local) : TURBOMOLE V7.0( ) 18 Nov 2015 at 09:57:41
 Copyright (C) 2015 TURBOMOLE GmbH, Karlsruhe


    2016-02-07 17:34:43.744 

 number of mkl threads =          10
 
                FOUND RI-J FLAG
 
  HF exact exchange energy will be computed using RI-J.


              +--------------------------------------------------+
              | Atomic coordinate, charge and isotop information |
              +--------------------------------------------------+

                    atomic coordinates            atom    charge  isotop
         -2.67380579    0.28440804   -0.72547973    c      6.000     0
         -4.72178236   -1.33096837   -0.69892179    c      6.000     0
         -4.40530560   -3.97060379   -0.72287291    c      6.000     0
         -2.01668950   -5.02847711   -0.77878398    c      6.000     0
          0.05219046   -3.39891954   -0.81366046    c      6.000     0
         -0.23704880   -0.75479633   -0.78945499    c      6.000     0
          2.60111939   -3.90257111   -0.88589247    n      7.000     0
          2.23313489    0.33859283   -0.85585935    c      6.000     0
          3.90075423   -1.64491849   -0.91825281    c      6.000     0
         -7.17645554   -0.47873090   -0.63558726    o      8.000     0
          3.38489040   -5.62545015   -0.94803407    h      1.000     0
          2.90480175    3.08048901   -0.85839412    c      6.000     0
          2.96184022    4.24421551    1.78132067    c      6.000     0
          0.43976309    4.13899037    2.93451847    n      7.000     0
         -2.93683967    2.30475460   -0.66303342    h      1.000     0
         -6.06688002   -5.14071466   -0.69473220    h      1.000     0
         -1.78027978   -7.05092067   -0.79704086    h      1.000     0
          5.92921893   -1.62402836   -1.00522836    h      1.000     0
         -7.11110293    1.34218952   -0.62108871    h      1.000     0
          4.76032451    3.32754875   -1.72532139    h      1.000     0
          1.54905193    4.13368318   -2.00264585    h      1.000     0
          3.49657216    6.22612602    1.62166537    h      1.000     0
          4.41704486    3.28353710    2.89630778    h      1.000     0
          0.51177129    4.94815530    4.67145209    h      1.000     0
         -0.01628814    2.29840924    3.23502036    h      1.000     0
 
       center of nuclear mass  :   -0.51120833   -0.53410804   -0.23890537
       center of nuclear charge:   -0.44680262   -0.45571800   -0.20275694
              +-------------------------------------------------+
              |        Rotational Constants Section             |
              +-------------------------------------------------+
                                   Center of Mass [a.u]:
              -0.51120833357488        -0.53410803891223        -0.23890536658006
                     Principal Moments of Inertia [a.u.]
            1546.63313361639393      2718.86003740662090      3962.21457268375070
                       Rotational constants A,B,C [a.u.]
               0.00032328287112         0.00018390060287         0.00012619205518
                     Rotational constants A,B,C [cm**-1]
               0.03892305500462         0.02214151729161         0.01519344432953
                        Rotational constants A,B,C [MHz]
            1166.88383327036513       663.78598927023234       455.48800210354045

   * BASIS SET information:

              +--------------------------------------------------+
              |               basis set information              |
              +--------------------------------------------------+

              we will work with the 1s 3p 5d 7f 9g ... basis set
              ...i.e. with spherical basis functions...

   type   atoms  prim   cont   basis
   ---------------------------------------------------------------------------
    c       10     50     30   cc-pVTZ   [4s3p2d1f|18s5p2d1f]
    n        2     50     30   cc-pVTZ   [4s3p2d1f|18s5p2d1f]
    o        1     50     30   cc-pVTZ   [4s3p2d1f|18s5p2d1f]
    h       12     16     14   cc-pVTZ   [3s2p1d|5s2p1d]
   ---------------------------------------------------------------------------
   total:   25    842    558
   ---------------------------------------------------------------------------

   total number of primitive shells          :   86
   total number of contracted shells         :  202
   total number of cartesian basis functions :  635
   total number of SCF-basis functions       :  558


   * AUXILIARY BASIS SET information:

              +--------------------------------------------------+
              |               basis set information              |
              +--------------------------------------------------+

              we will work with the 1s 3p 5d 7f 9g ... basis set
              ...i.e. with spherical basis functions...

   type   atoms  prim   cont   basis
   ---------------------------------------------------------------------------
    c       10     81     81   cc-pVTZ   [8s6p5d3f1g|8s6p5d3f1g]
    n        2     81     81   cc-pVTZ   [8s6p5d3f1g|8s6p5d3f1g]
    o        1     81     81   cc-pVTZ   [8s6p5d3f1g|8s6p5d3f1g]
    h       12     30     30   cc-pVTZ   [4s3p2d1f|4s3p2d1f]
   ---------------------------------------------------------------------------
   total:   25   1413   1413
   ---------------------------------------------------------------------------

   total number of primitive shells          :   79
   total number of contracted shells         :  419
   total number of cartesian basis functions : 1733
   total number of SCF-basis functions       : 1413


   * RIJ AUXILIARY BASIS SET information:

              +--------------------------------------------------+
              |               basis set information              |
              +--------------------------------------------------+

              we will work with the 1s 3p 5d 7f 9g ... basis set
              ...i.e. with spherical basis functions...

   type   atoms  prim   cont   basis
   ---------------------------------------------------------------------------
    c       10     70     49   cc-pVTZ   [6s4p3d1f1g|12s5p4d2f1g]
    n        2     70     49   cc-pVTZ   [6s4p3d1f1g|12s5p4d2f1g]
    o        1     70     49   cc-pVTZ   [6s4p3d1f1g|12s5p4d2f1g]
    h       12     16     11   cc-pVTZ   [3s1p1d|5s2p1d]
   ---------------------------------------------------------------------------
   total:   25   1102    769
   ---------------------------------------------------------------------------

   total number of primitive shells          :   80
   total number of contracted shells         :  255
   total number of cartesian basis functions :  937
   total number of SCF-basis functions       :  769


 reading orbital data $scfmo  from file mos . 

 orbital characterization : scfconv=9
 

 integral neglect threshold       :  0.32E+02

 scfconv           9

 MAXIMUM CORE MEMORY WHICH CAN BE ALLOCATED DYNAMICALLY = 20000 MiB
              ( or 2621440000 double words )


 there are 1 real representations :   a   

 maximum number of shells which are related by symmetry :  1


         --------------------------------------------------------------
                   checking mo's by calculating trace(D*S)

              number of electrons : 
                 from trace(D*S)         :   94.000000000006
                 from occupation numbers :   94.000000000000

              molecular charge           :    0.000000000000
         --------------------------------------------------------------

 time elapsed for calculating density matrices :   0.224 sec
 all orbitals will be active in the correlation treatment

     total memory allocated for calculation of (Q|P)**(-1/2) : 23 MiB


     calculation of (P|Q) ...
     time in lp2sym        cpu:  0.40 sec    wall:  0.04 sec    ratio:  9.9


     calculation of the Cholesky decomposition of (P|Q)**(-1) ...
     time in invmetri      cpu:  2.05 sec    wall:  0.20 sec    ratio: 10.0

   threshold for RMS(d[D]) in SCF was     :  0.10E-06
   integral neglect threshold             :  0.19E-13
   derivative integral neglect threshold  :  0.10E-06


 setting up bound for integral derivative estimation

 increment for numerical differentiation : 0.00050000
 total memory allocated for calculation of (Q|P)**(-1/2) : 23 MiB
 Dividing biap into         1813  block chunks,
 using                     5 MB per block
 Reserved                   9987 MB for BLAS routines
 Estimated total memory usage:                  19990 MB
 number of passes:            1
 
 Number of eigenvalues < 6e-3:            0
 
 
            -----------------------------
            Complex frequency integration
            -----------------------------
 
 Number of Clenshaw-Curtis nodes:          200
 Optimized scaling parameter    :    1.00000000000000     
 Sensitivity measure            :  -2.620925698693100E-011
 
 Allocatable memory for RI due to $ricore (MB):       15000

 there are 1 real representations :   a   

 maximum number of shells which are related by symmetry :  1

  
           ------------------------
               RI-J - INFORMATION
           ------------------------
 Contributions to RI integral batches: 
  neglected integral batches:        2231
  direct contribution:                  0
  memory contribution:       18272
 
          -----------------
          -S,T+V- integrals
          -----------------

 1e-integrals will be neglected if expon. factor < 0.192345E-13

          ------------------------
          nuclear repulsion energy  :   774.619568300    
          ------------------------


                  -------------------------------------------- 
                 |  HXX+RIRPA total energy     =   -573.38986053948  |
                  --------------------------------------------- 
                 :  RIRPA correlation energy   =     -3.89300253008  :
                 :  HXX total energy           =   -569.49685800940  :
                 :  Hartree energy             =   1047.40332955136  :
                 :  Exact Exchange energy      =    -77.59305517151  :
                  ............................................. 


    ------------------------------------------------------------------------
    Rirpa Energy profiling         cpu                    wall         ratio
    ------------------------------------------------------------------------
    module                         sec     %               sec     %
    ------------------------------------------------------------------------
    RIRPA_energy               2048.3  100.00          374.4  100.00   5.5
    riccmos                       2.4    0.12            0.2    0.06  10.0
    riccaux                       2.5    0.12            0.3    0.07  10.0
    riccbound                     3.8    0.18            1.1    0.29   3.5
    ccmkbaoi                     94.7    4.62            9.6    2.56   9.9
    ecrpa                      1753.1   85.59          178.9   47.79   9.8
    tread                       232.1   11.33           23.3    6.23  10.0
    tqbuild                    1316.8   64.29          134.9   36.04   9.8
    trpaln                       87.8    4.29            8.9    2.38   9.9
    ehxx                        190.4    9.30          184.0   49.15   1.0
    ------------------------------------------------------------------------
    sum                        5733.3  279.90          915.9  244.65   6.3
    ------------------------------------------------------------------------

 residuum convergence criterium   :  0.10E-04


 integral neglect threshold       :  0.52E-11
 integral storage threshold THIZE :  0.10E-04
 integral storage threshold THIME :         5


 WARNING : cannot change filename for statistics 
  
           ------------------
           density functional
           ------------------
 PBE functional
 exchange:    LDA + PBE
 correlation: LDA (PW) + PBE
 iterations will be done with small grid
  
 spherical integration : Lebedev's spherical grid
 spherical gridsize    :           5
    i.e. gridpoints    :         590
 value for diffuse not defined
 radial integration    : Chebyshev 2nd kind (scaling 3)
 radial gridsize       :           8
 integration cells     :          25
 partition function    : becke
 partition sharpness   :           3
  
 preparing numerical integration ....
          Overall gridpoints after grid construction =        120341

 Calculating ground state density on molecular grid

 Integral of ground state density: N =   93.99987066146483    



          IRREP   tensor space dimension   number of roots

           a             24017                   1
 number of passes:    1
 
 Number of eigenvalues < 6e-3:            0
 
 
            -----------------------------
            Complex frequency integration
            -----------------------------
 
 Number of Clenshaw-Curtis nodes:          200
 Optimized scaling parameter    :    1.00000000000000     
 Sensitivity measure            :  -2.620925698693100E-011
 
 Contributions to RI integral batches: 
  neglected integral batches:        2511
  direct contribution:              17992
  memory contribution:           0

 maximum number of Davidson iterations set to   25


 logfile dipl_a    exists already

 found      1 converged vectors on dipl_a   
 read       1 vectors from logfile dipl_a   


                    ------------------

                     CPKS equations   

                    ------------------


                       Block Davidson iteration


 total number of roots to be determined:   1


 maximum core memory set to 20000 MB,
 corresponding to     6433 vectors in CAO basis


 maximum number of simultaneously treated vectors (including degeneracy):        1


 Iteration IRREP Converged      Max. Euclidean
                 roots          residual norm

    1       a        0        4.213892929815340D-04
 
    2       a        0        2.483330916165219D-05
 
    3       a        1        6.226204434725416D-06
 

 converged!


 Switching to fine grid

 preparing numerical integration ....
          Overall gridpoints after grid construction =        386771

 Calculating ground state density on molecular grid

 Integral of ground state density: N =   94.00000018006124    



 Iteration IRREP Converged      Max. Euclidean
                 roots          residual norm

    4       a        0        5.799721062193198D-05
 

 NOTE: Residual norms are larger than 1.00D-05 due to mgrid option!

 Eigenpairs written on logfile dipl_a   



 IRREP   Vector     Frequency            Euclidean residual norm

  a         1    0.000000000000000D+00    5.799721062193198D-05
 

                    -------------------

                     relaxed densities 

                    -------------------

    ----------------------------------------
     S+T+V CONTRIBUTIONS TO ENERGY GRADIENT 
    ----------------------------------------

 1e-integral 1st. derivatives will be neglected if expon. factor < 0.100000E-10


    -----------------------------------------------
     TWO ELECTRON CONTRIBUTIONS TO ENERGY GRADIENT 
    -----------------------------------------------

 setting up bound for integral derivative estimation

 increment for numerical differentiation : 0.00050000

 biggest AO integral is expected to be     4.866064444
 biggest cartesian 1st derivative AO integral is expected to be     8.879921869

 biggest 1-particle AO density matrix element is expected to be    1.9354494882

 core memory to be involved in 2e-gradient :
   symmetry shell pair data              :         1
   two particle density+dens. estimates  :     71128
   derivative integrals                  :    313877
   ij-primitive data                     :       576
   derivative integral bound             :     61509
   totally                               :    375960


 setting up bound for integral derivative estimation

 increment for numerical differentiation : 0.00050000

 biggest AO integral is expected to be     4.866064444
 biggest cartesian 1st derivative AO integral is expected to be     8.879921869

 2e-integral 1st. derivatives will be neglected if expon. factor < 0.935762E-20
 outer boundary for 2e-integral derivative neglection is 0.416342E-21

 Integrated ground state density     :   94.00000018006124    


          ------------------------------------------------
           cartesian gradient of the energy (hartree/bohr)
          ------------------------------------------------

  ATOM      1 c           2 c           3 c           4 c           5 c 
dE/dx  0.3091551D-05 -0.7888908D-06 -0.8082765D-06  0.1594651D-05 -0.8794907D-06
dE/dy -0.2552240D-06  0.5557534D-06  0.4073110D-07  0.1306502D-06  0.1342764D-06
dE/dz  0.5756708D-07 -0.1111895D-06 -0.8590256D-07 -0.1945250D-06 -0.9764161D-06

  ATOM      6 c           7 n           8 c           9 c          10 o 
dE/dx -0.1119265D-05 -0.1206712D-06  0.2622245D-05 -0.1483303D-05  0.9357647D-06
dE/dy  0.2359671D-06  0.1469878D-06 -0.5198082D-06  0.1774630D-06  0.4910933D-06
dE/dz  0.3239562D-06  0.1091723D-05  0.1004161D-06 -0.4719857D-06  0.1304832D-05

  ATOM     11 h          12 c          13 c          14 n          15 h 
dE/dx  0.1099140D-06  0.7963213D-06 -0.4086528D-05  0.4795317D-05 -0.1933015D-05
dE/dy  0.1997645D-06 -0.3530768D-05  0.4706551D-05 -0.2633429D-05 -0.6353402D-06
dE/dz -0.3417080D-06 -0.1664027D-05  0.1726623D-06  0.2986332D-05  0.1982259D-07

  ATOM     16 h          17 h          18 h          19 h          20 h 
dE/dx  0.4427323D-06 -0.9877042D-06 -0.4223567D-07 -0.2904442D-06 -0.1005895D-05
dE/dy -0.4849043D-07  0.2422657D-06 -0.4364449D-06 -0.3262325D-06  0.1552333D-05
dE/dz -0.3926998D-06  0.3833538D-06  0.1398661D-06 -0.7819957D-06  0.2744736D-06

  ATOM     21 h          22 h          23 h          24 h          25 h 
dE/dx  0.8913715D-07  0.3724248D-06  0.5985006D-07 -0.1099026D-05 -0.5852786D-06
dE/dy  0.1133988D-06 -0.9854637D-06 -0.1188219D-05  0.3104849D-06  0.1372748D-05
dE/dz  0.2566648D-06  0.7448744D-06 -0.1780779D-06 -0.1381910D-05 -0.1072786D-05
 
 resulting FORCE  (fx,fy,fz) = (-.320D-06,-.149D-06,0.203D-06)
 resulting MOMENT (mx,my,mz) = (0.362D-05,0.160D-05,-.368D-05)


 **********************************************************************
  |maximum component of gradient| : 0.47953171E-05  (atom 14 n )       
   gradient norm                  : 0.12016230E-04
 **********************************************************************

 exx =      -0.000015 eyy =      -0.000009 ezz =       0.000000
 eyz =       0.000003 exz =       0.000000 exy =      -0.000001

   ***  cartesian gradients written onto <gradient>  ***
 
 
 
 ==============================================================================
                           electrostatic moments
 ==============================================================================

 reference point for electrostatic moments:    0.00000   0.00000   0.00000

 
              nuc           gs,e       ->  gs,tot          rpa       ->  total
 ------------------------------------------------------------------------------
                          charge      
 ------------------------------------------------------------------------------
          94.000000     -94.000000      -0.000000       0.000000      -0.000000
 
 ------------------------------------------------------------------------------
                       dipole moment  
 ------------------------------------------------------------------------------
   x     -41.999446      43.073183       1.073737       0.064259       1.137996
   y     -42.837492      42.584397      -0.253095      -0.033879      -0.286974
   z     -19.059152      19.339346       0.280194      -0.009385       0.270809
 
   | dipole moment | =     1.2045 a.u. =     3.0614 debye 
 
 ------------------------------------------------------------------------------
                     quadrupole moment
 ------------------------------------------------------------------------------
  xx    1205.909390   -1261.566071     -55.656681      -0.633649     -56.290330
  yy     965.469797   -1015.192224     -49.722427      -0.296458     -50.018885
  zz     176.639917    -234.500875     -57.860957      -0.575406     -58.436363
  xy     323.038349    -328.169180      -5.130831       0.181361      -4.949470
  xz      86.282300     -86.746371      -0.464071       0.036335      -0.427736
  yz     263.640056    -262.301091       1.338965      -0.043970       1.294995
 
     1/3  trace=     -54.915193
     anisotropy=      11.681904
 
 ==============================================================================
 

    ------------------------------------------------------------------------
    Rirpa profiling                cpu                    wall         ratio
    ------------------------------------------------------------------------
    module                         sec     %               sec     %
    ------------------------------------------------------------------------
    RIRPA                     11980.4  100.00         2587.8  100.00   4.6
    RIRPA_energy               2048.3   17.10          374.4   14.47   5.5
    ccmkbaoi                     94.7    0.79            9.6    0.37   9.9
    ecrpa                      1753.1   14.63          178.9    6.91   9.8
    tread                       232.1    1.94           23.3    0.90  10.0
    tqbuild                    1316.8   10.99          134.9    5.21   9.8
    trpaln                       87.8    0.73            8.9    0.34   9.9
    ehxx                        190.4    1.59          184.0    7.11   1.0
    RIRPA_grad                 9932.1   82.90         2213.4   85.53   4.5
    SETUP_grad                   25.2    0.21            2.8    0.11   8.9
    rirhs                      7750.7   64.69          803.9   31.07   9.6
    respon                      321.2    2.68           46.0    1.78   7.0
    rparelax                    175.4    1.46           21.3    0.82   8.2
    egdfin                     1564.4   13.06         1329.1   51.36   1.2
    ------------------------------------------------------------------------
    sum                       37482.6  312.87         7920.2  306.06   4.7
    ------------------------------------------------------------------------


    ------------------------------------------------------------------------
         total  cpu-time :  3 hours 19 minutes and 41 seconds
         total wall-time : 43 minutes and  8 seconds
    ------------------------------------------------------------------------


   ****  rirpa : all done  ****


    2016-02-07 18:17:51.611 

                                 ****   rirpa : all done  ****
fine, there is no data group "$actual step"
script actual: unknown actual step rirpa
next step = unknown
 energy change  : actual value =   0.4450E-07 threshold =   0.1000E-06
 geom. gradient : actual value =   0.8449E-05 threshold =   0.1000E-03

CONVERGENCY CRITERIA FULFILLED IN CYCLE 19

