Using Slurm to start processes with PMI2
STARTING ridft ON 8 PROCESSORS!
RUNNING PROGRAM /beegfs/modfac/apps/TURBOMOLE/7.0_intel_GA/bin/em64t-unknown-linux-gnu_mpi/ridft_mpi.
PLEASE WAIT UNTIL ridft HAS FINISHED.
Look for the output in slave1.output.
  this is node-proc. number 1 running on node c-9-371.local
  the total number of node-proc. spawned is            8
  parallel platform: MPP, or cluster with fast interconnect

 ridft (c-9-371.local) : TURBOMOLE V7.0.2( ) 15 Jan 2016 at 17:47:42
 Copyright (C) 2016 TURBOMOLE GmbH, Karlsruhe


    2017-11-01 20:15:53.871 



                                  r i d f t

                        DFT program with RI approximation 
                                for coulomb part 




                                                 
                                 References:     
                                                 
          TURBOMOLE:                             
              R. Ahlrichs, M. Baer, M. Haeser, H. Horn, and
              C. Koelmel
              Electronic structure calculations on workstation
              computers: the program system TURBOMOLE
              Chem. Phys. Lett. 162: 165 (1989)
          Density Functional:                              
              O. Treutler and R. Ahlrichs                      
              Efficient Molecular Numerical Integration Schemes
              J. Chem. Phys. 102: 346 (1995)                   
          Parallel Version:                                
              Performance of parallel TURBOMOLE for Density    
              Functional Calculations                          
              M. v. Arnim and R. Ahlrichs                      
              J. Comp. Chem. 19: 1746 (1998)                   
          RI-J Method:                                     
              Auxiliary Basis Sets to approximate Coulomb      
              Potentials                                       
              Chem. Phys. Lett. 240: 283 (1995)                
              K. Eichkorn, O. Treutler, H. Oehm, M. Haeser     
              and R. Ahlrichs                                  
              Chem. Phys. Lett. 242: 652 (1995)                
                                                           
              Auxiliary Basis Sets for Main Row Atoms and their
              Use to approximate Coulomb Potentials            
              K. Eichkorn, F. Weigend, O. Treutler and         
              R. Ahlrichs                                      
              Theo. Chem. Acc. 97: 119 (1997)                   
                                                           
              Accurate Coulomb-fitting basis sets for H to Rn 
              F. Weigend                                        
              Phys. Chem. Chem. Phys. 8: 1057 (2006)            
                                                           
          Multipole accelerated RI-J (MARI-J):             
              Fast evaluation of the Coulomb potential for     
              electron densities using multipole accelerated   
              resolution of identity approximation             
              M. Sierka, A. Hogekamp and R. Ahlrichs           
              J. Chem. Phys. 118: 9136 (2003)                  
          RI-JK Method:                                     
              A fully direct RI-HF algorithm: Implementation,
              optimised auxiliary basis sets, demonstration of
              accuracy and efficiency                         
              F. Weigend                                      
              Phys. Chem. Chem. Phys. 4: 4285 (2002)           
          Two-component HF and DFT with spin-orbit coupling:  
              Self-consistent treatment of spin-orbit         
              interactions with efficient Hartree-Fock and    
              density functional methods                      
              M. K. Armbruster, F. Weigend, C. van Wüllen and 
              W. Klopper                                      
              Phys. Chem. Chem. Phys. 10: 1748 (2008)         
          Relativistic all-electron 2c calculations           
              An efficient implementation of two-component    
              relativistic exact-decoupling methods for large 
              molecules                                       
              D. Peng, N. Middendorf, F. Weigend, M. Reiher   
              J. Chem. Phys. 138, 184105 (2013)               
                                         


 


              +--------------------------------------------------+
              |      general information about current run       |
              +--------------------------------------------------+

 

 SCF run will be profiled !


 DENSITY CONVERGENCE CHECK SWITCHED ON !
 SCF CONVERGENCE IF RMS(delta[D]) <     0.1000000000E-06

 PBE functional
 exchange:    LDA + PBE
 correlation: LDA (PW) + PBE
 A DFT calculation using the RI-J approximation will be carried out.
 Allocatable memory for RI due to $ricore (MB):       10000


              +--------------------------------------------------+
              | Atomic coordinate, charge and isotop information |
              +--------------------------------------------------+

                    atomic coordinates            atom    charge  isotop
         -2.32137313    2.74907056    0.00000000    c      6.000     0
          2.32137385   -2.74907241    0.00000000    c      6.000     0
          0.02606728    1.33991212    0.00000000    c      6.000     0
         -0.02606952   -1.33991729    0.00000000    c      6.000     0
         -4.66507723    1.41054631    0.00000000    c      6.000     0
          4.66507703   -1.41054625    0.00000000    c      6.000     0
         -6.96964759    2.76566261    0.00000000    c      6.000     0
          6.96964821   -2.76566124    0.00000000    c      6.000     0
          2.41570828   -5.42260819    0.00000000    c      6.000     0
         -2.41570529    5.42260667    0.00000000    c      6.000     0
          2.41463867    2.59399197    0.00000000    c      6.000     0
         -2.41464313   -2.59399429    0.00000000    c      6.000     0
          4.63530791    1.28098668    0.00000000    c      6.000     0
         -4.63531117   -1.28098629    0.00000000    c      6.000     0
         -4.68990766    6.70454640    0.00000000    c      6.000     0
          4.68991194   -6.70454684    0.00000000    c      6.000     0
         -6.99345947    5.37139007    0.00000000    c      6.000     0
          6.99346196   -5.37138923    0.00000000    c      6.000     0
          2.47732919    4.64175369    0.00000000    h      1.000     0
         -2.47733579   -4.64175584    0.00000000    h      1.000     0
         -0.67785917    6.50848921    0.00000000    h      1.000     0
          0.67786184   -6.50849048    0.00000000    h      1.000     0
          6.42982472    2.28183081    0.00000000    h      1.000     0
         -6.42982766   -2.28183138    0.00000000    h      1.000     0
          8.73000906   -1.70542995    0.00000000    h      1.000     0
         -8.73001126    1.70543575    0.00000000    h      1.000     0
          4.69864578   -8.75740489    0.00000000    h      1.000     0
         -4.69864411    8.75740452    0.00000000    h      1.000     0
         -8.77303194    6.39421184    0.00000000    h      1.000     0
          8.77303839   -6.39420465    0.00000000    h      1.000     0
 
       center of nuclear mass  :    0.00000005   -0.00000042    0.00000000
       center of nuclear charge:    0.00000004   -0.00000036    0.00000000

              +--------------------------------------------------+
              |               basis set information              |
              +--------------------------------------------------+

              we will work with the 1s 3p 5d 7f 9g ... basis set
              ...i.e. with spherical basis functions...

   type   atoms  prim   cont   basis
   ---------------------------------------------------------------------------
    c       18     77     55   cc-pVQZ   [5s4p3d2f1g|21s6p3d2f1g]
    h       12     32     30   cc-pVQZ   [4s3p2d1f|6s3p2d1f]
   ---------------------------------------------------------------------------
   total:   30   1770   1350
   ---------------------------------------------------------------------------

   total number of primitive shells          :   45
   total number of contracted shells         :  390
   total number of cartesian basis functions : 1680
   total number of SCF-basis functions       : 1350


 integral neglect threshold       :  0.20E-13
 integral storage threshold THIZE :  0.10E-04
 integral storage threshold THIME :         5

 RI-J AUXILIARY BASIS SET information:

              we will work with the 1s 3p 5d 7f 9g ... basis set
              ...i.e. with spherical basis functions...

   type   atoms  prim   cont   basis
   ---------------------------------------------------------------------------
    c       18     70     49   cc-pVQZ   [6s4p3d1f1g|12s5p4d2f1g]
    h       12     16     11   cc-pVQZ   [3s1p1d|5s2p1d]
   ---------------------------------------------------------------------------
   total:   30   1452   1014
   ---------------------------------------------------------------------------

   total number of primitive shells          :   32
   total number of contracted shells         :  330
   total number of cartesian basis functions : 1242
   total number of SCF-basis functions       : 1014


 symmetry group of the molecule :   c1 

 the group has the following generators :
   c1(z)

    1 symmetry operations found

 there are 1 real representations :   a   

 maximum number of shells which are related by symmetry :  1


    mo occupation :
   irrep   mo's   occupied
    a     1350       60
 
 number of basis functions   :         1350
 number of occupied orbitals :           60
 
  
           ------------------
           density functional
           ------------------
 PBE functional
 exchange:    LDA + PBE
 correlation: LDA (PW) + PBE
 grinp -> nfun, dfgga, dfhybrid 
           6 T F
 iterations will be done with small grid
  
 spherical integration : Lebedev's spherical grid
 spherical gridsize    :           5
    i.e. gridpoints    :         590
 value for diffuse not defined
 radial integration    : Chebyshev 2nd kind (scaling 3)
 radial gridsize       :           8
 integration cells     :          30
 partition function    : becke
 partition sharpness   :           3
  

 <rddim> : input of entry tasksize
           from data group '$pardft' failed !

               Default values taken

 <rddim> : input of entry memdiv
           from data group '$pardft' failed !

               Default values taken
  RIDFT: memory allocation for DFT gridpoints
  MEMORY is divided by 1 as DEFAULT
 Each node can hold at most  the            1 -th part
 of the gridpoints    

 biggest AO integral is expected to be     3.537514283
  
           ------------------------
               RI-J - INFORMATION
           ------------------------
 
 
 **************************************************
 *      MEMORY ALLOCATION FOR PARALLEL RI-DFT     *
 **************************************************
 
 
MEMORY FOR (MU NU/ ALPHA), SEQUENTIAL RUN               9992 MByte
 
            DIFFERENCE IN MEMORY NEED:       DIAG./SLAVE  
 
      TOTAL DIFFERENCE :                     83 MByte
 
      difference in xcore:                    9 MByte
      difference in fatmat:                  25 MByte
      getcor calls skipped by slaves:        50 MByte
 
 
           Integral memory available for diagonal.      9992 MByte
 
           Integral memory available for slave             0 MByte
 
         MEMORY FOR (MU NU/ ALPHA) ON DIAGONALIZER      9992 MByte
 
         MEMORY FOR (MU NU/ ALPHA) ON ONE SLAVE            0 MByte
 
         TOTAL MEMORY FOR (MU NU/ ALPHA),ALL NODES      9992 MByte
 
 Contributions to RI integral batches: 
  neglected integral batches:       27486
  direct contribution:                  0
  memory contribution:       48759
 Memory core needed for (P|Q) and Cholesky      8 MByte
 Memory core minimum needed except of (P|Q)     8 MByte
 Total minimum memory core needed (sum)        16 MByte
  
 ****************************************
 Memory allocated for RI-J 10007 MByte
 ****************************************
                                            

          ------------------------
          nuclear repulsion energy  :   1137.29315020    
          ------------------------

 
          -----------------
          -S integrals
          -----------------

 1e-integrals will be neglected if expon. factor < 0.198926E-14
 
          -----------------
          -T+V integrals
          -----------------

 1e-integrals will be neglected if expon. factor < 0.198926E-14
 Difference densities >>NOT<< switched on in parallel ridft!

 automatic virtual orbital shift switched on 
      shift if e(lumo)-e(homo) < 0.10000000    


 DIIS switched on: error vector is FDS-SDF
 Max. Iterations for DIIS is     :   4
 DIIS matrix (see manual) 
    Scaling factor of diagonals  :  1.200
    threshold for scaling factor :  0.000

 scf convergence criterion : increment of total energy < .1000000D-08
                  and increment of one-electron energy < .1000000D-05


 <geterg> : there is no data group $energy 

  MOs are in ASCII format !


 reading orbital data $scfmo  from file mos . 

 orbital characterization : expanded
 
 mo provided and orthogonalized by Cholesky decomposition

 DSCF restart information will be dumped onto file mos


 Starting SCF iterations


 ITERATION  ENERGY          1e-ENERGY        2e-ENERGY     RMS[dD(SAO)]   TOL
   1  -690.54527977011    -3163.7164491     1335.8780192    0.000D+00 0.198D-13
                            Exc = -98.7829043962     Coul =  1434.66092355    
                              N = 120.00038792    
                            current damping = 0.700
 
          max. resid. norm for Fia-block=  2.688D-01 for orbital     11a         
          max. resid. fock norm         =  7.084D+00 for orbital   1204a         

 ITERATION  ENERGY          1e-ENERGY        2e-ENERGY     RMS[dD(SAO)]   TOL
   2  -692.13608816310    -3183.4777807     1354.0485424    0.123D-01 0.198D-13
                            Exc = -100.485505335     Coul =  1454.53404770    
                              N = 120.00027448    
                            current damping = 0.650
 
          Norm of current diis error:  4.6752    
          max. resid. norm for Fia-block=  1.155D-01 for orbital     21a         
          max. resid. fock norm         =  1.365D-01 for orbital     20a         

 ITERATION  ENERGY          1e-ENERGY        2e-ENERGY     RMS[dD(SAO)]   TOL
   3  -692.45482196241    -3187.7086765     1357.9607043    0.358D-02 0.198D-13
                            Exc = -100.930124104     Coul =  1458.89082843    
                              N = 120.00021618    
                            current damping = 0.550
 
          Norm of current diis error:  2.2349    
          max. resid. norm for Fia-block=  5.730D-02 for orbital     20a         
          max. resid. fock norm         =  6.520D-02 for orbital     20a         

 ITERATION  ENERGY          1e-ENERGY        2e-ENERGY     RMS[dD(SAO)]   TOL
   4  -692.54462196053    -3191.5596511     1361.7218789    0.121D-02 0.198D-13
                            Exc = -101.230959487     Coul =  1462.95283840    
                              N = 120.00018542    
                            current damping = 0.450
 
          Norm of current diis error: 0.83912    
          max. resid. norm for Fia-block=  2.244D-02 for orbital     20a         
          max. resid. fock norm         =  2.586D-02 for orbital     20a         

 ITERATION  ENERGY          1e-ENERGY        2e-ENERGY     RMS[dD(SAO)]   TOL
   5  -692.55864635345    -3192.0718612     1362.2200647    0.474D-03 0.198D-13
                            Exc = -101.326465508     Coul =  1463.54653018    
                              N = 120.00016911    
                            current damping = 0.300
 
          Norm of current diis error: 0.35011    
          max. resid. norm for Fia-block=  7.936D-03 for orbital     21a         
          max. resid. fock norm         =  1.237D-02 for orbital      7a         
          mo-orthogonalization: Cholesky decomposition

 ITERATION  ENERGY          1e-ENERGY        2e-ENERGY     RMS[dD(SAO)]   TOL
   6  -692.56043400104    -3193.2748245     1363.4212404    0.165D-03 0.198D-13
                            Exc = -101.387646988     Coul =  1464.80888734    
                              N = 120.00016535    
                            current damping = 0.200
 
          Norm of current diis error: 0.21390    
          max. resid. norm for Fia-block=  3.440D-03 for orbital     59a         
          max. resid. fock norm         =  6.771D-03 for orbital   1336a         

 ITERATION  ENERGY          1e-ENERGY        2e-ENERGY     RMS[dD(SAO)]   TOL
   7  -692.56129873356    -3192.9049008     1363.0504518    0.616D-04 0.198D-13
                            Exc = -101.388910728     Coul =  1464.43936255    
                              N = 120.00016250    
                            current damping = 0.250
 
          Norm of current diis error: 0.73993E-01
          max. resid. norm for Fia-block=  1.588D-03 for orbital     57a         
          max. resid. fock norm         =  2.964D-03 for orbital   1345a         

 ITERATION  ENERGY          1e-ENERGY        2e-ENERGY     RMS[dD(SAO)]   TOL
   8  -692.56134682397    -3192.9971264     1363.1426293    0.198D-04 0.198D-13
                            Exc = -101.387269866     Coul =  1464.52989921    
                              N = 120.00016245    
                            current damping = 0.300
 
          Norm of current diis error: 0.56403E-01
          max. resid. norm for Fia-block=  7.735D-04 for orbital     57a         
          max. resid. fock norm         =  1.707D-03 for orbital   1340a         

 ITERATION  ENERGY          1e-ENERGY        2e-ENERGY     RMS[dD(SAO)]   TOL
   9  -692.56141786657    -3192.9705100     1363.1159419    0.980D-05 0.198D-13
                            Exc = -101.388467085     Coul =  1464.50440900    
                              N = 120.00016243    
                            current damping = 0.350
 
          Norm of current diis error: 0.10257E-01
          max. resid. norm for Fia-block=  2.670D-04 for orbital     58a         
          max. resid. fock norm         =  6.313D-04 for orbital   1346a         

 ITERATION  ENERGY          1e-ENERGY        2e-ENERGY     RMS[dD(SAO)]   TOL
  10  -692.56141788836    -3193.0154876     1363.1609196    0.345D-05 0.198D-13
                            Exc = -101.390083550     Coul =  1464.55100312    
                              N = 120.00016241    
                            current damping = 0.400
 
          Norm of current diis error: 0.10247E-01
          max. resid. norm for Fia-block=  1.416D-04 for orbital     60a         
          max. resid. fock norm         =  2.829D-04 for orbital   1346a         
          mo-orthogonalization: Cholesky decomposition

 ITERATION  ENERGY          1e-ENERGY        2e-ENERGY     RMS[dD(SAO)]   TOL
  11  -692.56142014954    -3192.9952867     1363.1407164    0.166D-05 0.198D-13
                            Exc = -101.389656109     Coul =  1464.53037247    
                              N = 120.00016237    
                            current damping = 0.450
 
          Norm of current diis error: 0.28860E-02
          max. resid. norm for Fia-block=  5.937D-05 for orbital     59a         
          max. resid. fock norm         =  1.395D-04 for orbital   1333a         

 ITERATION  ENERGY          1e-ENERGY        2e-ENERGY     RMS[dD(SAO)]   TOL
  12  -692.56142027478    -3192.9905867     1363.1360162    0.590D-06 0.198D-13
                            Exc = -101.389321975     Coul =  1464.52533820    
                              N = 120.00016238    
                            current damping = 0.300
 
          Norm of current diis error: 0.16701E-02
          max. resid. norm for Fia-block=  2.350D-05 for orbital     59a         
          max. resid. fock norm         =  5.022D-05 for orbital   1336a         

 ITERATION  ENERGY          1e-ENERGY        2e-ENERGY     RMS[dD(SAO)]   TOL
  13  -692.56142033234    -3192.9912282     1363.1366577    0.302D-06 0.198D-13
                            Exc = -101.389335905     Coul =  1464.52599361    
                              N = 120.00016238    
                            current damping = 0.350
 
          Norm of current diis error: 0.47216E-03
          max. resid. norm for Fia-block=  7.759D-06 for orbital     59a         
          max. resid. fock norm         =  1.556D-05 for orbital   1337a         

 DENSITY CONVERGED !


 ITERATION  ENERGY          1e-ENERGY        2e-ENERGY     RMS[dD(SAO)]   TOL
  14  -692.56142033637    -3192.9907158     1363.1361452    0.858D-07 0.198D-13
                            Exc = -101.389352150     Coul =  1464.52549738    
                              N = 120.00016238    
                            current damping = 0.400
 
          Norm of current diis error: 0.17703E-03
          max. resid. norm for Fia-block=  3.482D-06 for orbital     57a         
          max. resid. fock norm         =  7.175D-06 for orbital   1338a         

 DENSITY CONVERGED !


 ITERATION  ENERGY          1e-ENERGY        2e-ENERGY     RMS[dD(SAO)]   TOL
  15  -692.56142033690    -3192.9908618     1363.1362913    0.396D-07 0.198D-13
                            Exc = -101.389348734     Coul =  1464.52564004    
                              N = 120.00016238    
                            current damping = 0.450
 
          Norm of current diis error: 0.89211E-04
          max. resid. norm for Fia-block=  1.316D-06 for orbital     50a         
          max. resid. fock norm         =  2.635D-06 for orbital      9a         
          mo-orthogonalization: Cholesky decomposition

 DENSITY CONVERGED !


 ITERATION  ENERGY          1e-ENERGY        2e-ENERGY     RMS[dD(SAO)]   TOL
  16  -692.56142033707    -3192.9909495     1363.1363790    0.138D-07 0.198D-13
                            Exc = -101.389351860     Coul =  1464.52573086    
                              N = 120.00016238    
                            current damping = 0.300
 
          Norm of current diis error: 0.27476E-04
          max. resid. norm for Fia-block=  5.017D-07 for orbital     60a         
          max. resid. fock norm         =  1.173D-06 for orbital   1346a         

 DENSITY CONVERGED !


 ITERATION  ENERGY          1e-ENERGY        2e-ENERGY     RMS[dD(SAO)]   TOL
  17  -692.56142033710    -3192.9908762     1363.1363057    0.656D-08 0.198D-13
                            Exc = -101.389349643     Coul =  1464.52565535    
                              N = 120.00016238    
                            current damping = 0.350
 
          Norm of current diis error: 0.10906E-04
          max. resid. norm for Fia-block=  1.664D-07 for orbital     58a         
          max. resid. fock norm         =  4.199D-07 for orbital   1346a         

 ENERGY & DENSITY CONVERGED !


 ITERATION  ENERGY          1e-ENERGY        2e-ENERGY     RMS[dD(SAO)]   TOL
  18  -692.56139673042    -3192.9908860     1363.1363391    0.182D-08 0.198D-13
                            Exc = -101.389326398     Coul =  1464.52566545    
                              N = 120.00000512    
                            current damping = 0.400
 
          Norm of current diis error: 0.27384E-05
          max. resid. norm for Fia-block=  4.308D-08 for orbital     59a         
          max. resid. fock norm         =  9.034D-08 for orbital   1333a         

 End of SCF iterations

   convergence criteria satisfied after   18 iterations


                  ------------------------------------------ 
                 |  total energy      =   -692.56139673042  |
                  ------------------------------------------ 
                 :  kinetic energy    =    689.22461576445  :
                 :  potential energy  =  -1381.78601249487  :
                 :  virial theorem    =      1.99518197090  :
                 :  wavefunction norm =      1.00000000000  :
                  .......................................... 


 <geterg> : there is no data group $energy 


 <skperg> : $end is missing 


 orbitals $scfmo  will be written to file mos

    irrep                 56a         57a         58a         59a         60a   
 eigenvalues H         -0.25958    -0.25313    -0.22287    -0.20996    -0.19279
            eV          -7.0637     -6.8881     -6.0646     -5.7132     -5.2461
 occupation              2.0000      2.0000      2.0000      2.0000      2.0000 

    irrep                 61a         62a         63a         64a         65a   
 eigenvalues H         -0.08351    -0.07047    -0.06103    -0.02271    -0.02126
            eV          -2.2726     -1.9176     -1.6607     -0.6179     -0.5786
 
 
 ! grave: sending quit signal to master process
 
 
 
 
 ==============================================================================
                           electrostatic moments
 ==============================================================================

 reference point for electrostatic moments:    0.00000   0.00000   0.00000

 
              nuc           elec       ->  total
 ------------------------------------------------------------------------------
                          charge      
 ------------------------------------------------------------------------------
         120.000000    -120.000000      -0.000000
 
 ------------------------------------------------------------------------------
                       dipole moment  
 ------------------------------------------------------------------------------
   x       0.000005      -0.000006      -0.000001
   y      -0.000043       0.000044       0.000001
   z       0.000000       0.000000       0.000000
 
   | dipole moment | =     0.0000 a.u. =     0.0000 debye 
 
 ------------------------------------------------------------------------------
                     quadrupole moment
 ------------------------------------------------------------------------------
  xx    2603.803993   -2671.625572     -67.821579
  yy    1946.020785   -2013.806292     -67.785507
  zz       0.000000     -82.771529     -82.771529
  xy   -1406.057106    1405.823515      -0.233590
  xz       0.000000      -0.000000      -0.000000
  yz       0.000000       0.000000       0.000000
 
     1/3  trace=     -72.792872
     anisotropy=      14.973485
 
 ==============================================================================
 

    ridft profiling
  --------------------------------------------------------------------
             module   cpu total (s)       %  wall total (s)       %

               RIDFT           292.1  100.00           292.3  100.00
         Ridft_b_scf            20.9    7.15            20.9    7.15
        b_scf_prelim             0.0    0.00             0.0    0.00
        b_scf_molinp             0.0    0.00             0.0    0.00
         b_scf_init0             0.0    0.00             0.0    0.00
        b_scf_auxbas             0.0    0.00             0.0    0.00
      b_scf_symmetry             0.0    0.00             0.0    0.00
         b_scf_cosmo             0.0    0.00             0.0    0.00
        b_scf_params             1.6    0.54             1.6    0.54
          b_scf_ri-j            17.0    5.83            17.0    5.82
    b_scf_ri-j_auxpq            17.0    5.83            17.0    5.82
     ri-j_auxpq_chol             0.1    0.02             0.1    0.02
         b_scf_1elec             0.5    0.15             0.5    0.15
       b_scf_moinput             1.8    0.63             1.8    0.63
     moinput_orthmos             1.8    0.61             1.8    0.61
    b_scf_dft-dstmax             0.0    0.00             0.0    0.00
           Ridft_scf           271.0   92.76           271.1   92.76
          Scf_b_loop             0.0    0.00             0.0    0.00
                noga             0.0    0.00             0.0    0.00
            Scf_loop           270.3   92.53           270.4   92.52
     scf_loop_mkdmat             1.1    0.36             1.1    0.36
       scf_loop_ri-j            24.5    8.39            24.5    8.39
      parlp1.bc.dens             1.0    0.34             1.0    0.33
        parlp1.gs.gp             0.0    0.00             0.0    0.00
        parlp2.bc.gq             0.0    0.00             0.0    0.00
        scf_loop_dft           208.7   71.45           208.7   71.40
      pardft.bc.dens             0.0    0.00             0.0    0.00
        dft_grid_con             0.5    0.16             0.5    0.16
           dft_xcrhf           205.2   70.24           205.2   70.19
          dft_getval            13.6    4.65            13.6    4.64
          funct2 dst             0.2    0.08             0.2    0.08
      funct2 f2loop1             3.5    1.20             3.4    1.17
      funct2 f2loop2             5.1    1.75             5.2    1.77
          funct2 s+c             4.4    1.52             4.5    1.53
        funct2 cmf_2             3.9    1.33             3.9    1.32
          dft_mkdens            80.5   27.56            80.5   27.53
         dft_gga-fun             0.2    0.07             0.2    0.08
          dft_mkfock           110.6   37.87           110.6   37.85
     pardft.red.fock            15.8    5.39            15.8    5.39
     scf_loop_energy             0.0    0.01             0.0    0.01
     scf_loop_mkfock             0.0    0.01             0.0    0.01
       scf_loop_diis             9.4    3.23             9.4    3.23
       scf_loop_diag            13.7    4.69            13.7    4.69
         diag_tritrn             3.5    1.19             3.5    1.19
          diag_rdiag            10.2    3.48            10.2    3.48
     scf_loop_modump            10.4    3.55            10.5    3.59
      scf_loop_ortho             2.1    0.71             2.1    0.71
          Scf_a_loop             0.7    0.23             0.7    0.23
         Ridft_a_scf             0.2    0.08             0.3    0.09
         a_scf_fanal             0.2    0.07             0.2    0.08
 


    ------------------------------------------------------------------------
         total  cpu-time :  4 minutes and 54 seconds
         total wall-time :  4 minutes and 54 seconds
    ------------------------------------------------------------------------


   ****  ridft : all done  ****


    2017-11-01 20:20:47.945 

