           Doing BLAS/Lapack in the master proc. with  8 CPUs.
           SMPCPUS    set: Shared-memory Parallelization with   8 CPUs.

           SMP Parallelization Reference:
           C. van Wullen, J. Comput. Chem. 32 (2011) 1195--1201
 operating system is UNIX !

 ridft (c-18-362.gp.local) : TURBOMOLE V7.2 ( 21454 ) 4 Oct 2017 at 12:48:15
 Copyright (C) 2017 TURBOMOLE GmbH, Karlsruhe


    2018-04-24 21:22:08.228 



                                  r i d f t

                        DFT program with RI approximation 
                                for coulomb part 




                                                 
                                 References:     
                                                 
          TURBOMOLE:                             
              R. Ahlrichs, M. Baer, M. Haeser, H. Horn, and
              C. Koelmel
              Electronic structure calculations on workstation
              computers: the program system TURBOMOLE
              Chem. Phys. Lett. 162: 165 (1989)
          Density Functional:                              
              O. Treutler and R. Ahlrichs                      
              Efficient Molecular Numerical Integration Schemes
              J. Chem. Phys. 102: 346 (1995)                   
          Parallel Version:                                
              Performance of parallel TURBOMOLE for Density    
              Functional Calculations                          
              M. v. Arnim and R. Ahlrichs                      
              J. Comp. Chem. 19: 1746 (1998)                   
          RI-J Method:                                     
              Auxiliary Basis Sets to approximate Coulomb      
              Potentials                                       
              Chem. Phys. Lett. 240: 283 (1995)                
              K. Eichkorn, O. Treutler, H. Oehm, M. Haeser     
              and R. Ahlrichs                                  
              Chem. Phys. Lett. 242: 652 (1995)                
                                                           
              Auxiliary Basis Sets for Main Row Atoms and their
              Use to approximate Coulomb Potentials            
              K. Eichkorn, F. Weigend, O. Treutler and         
              R. Ahlrichs                                      
              Theo. Chem. Acc. 97: 119 (1997)                   
                                                           
              Accurate Coulomb-fitting basis sets for H to Rn 
              F. Weigend                                        
              Phys. Chem. Chem. Phys. 8: 1057 (2006)            
                                                           
          Multipole accelerated RI-J (MARI-J):             
              Fast evaluation of the Coulomb potential for     
              electron densities using multipole accelerated   
              resolution of identity approximation             
              M. Sierka, A. Hogekamp and R. Ahlrichs           
              J. Chem. Phys. 118: 9136 (2003)                  
          RI-JK Method:                                     
              A fully direct RI-HF algorithm: Implementation,
              optimised auxiliary basis sets, demonstration of
              accuracy and efficiency                         
              F. Weigend                                      
              Phys. Chem. Chem. Phys. 4: 4285 (2002)           
          Two-component HF and DFT with spin-orbit coupling:  
              Self-consistent treatment of spin-orbit         
              interactions with efficient Hartree-Fock and    
              density functional methods                      
              M. K. Armbruster, F. Weigend, C. van Wüllen and 
              W. Klopper                                      
              Phys. Chem. Chem. Phys. 10: 1748 (2008)         
          Relativistic all-electron 2c calculations           
              An efficient implementation of two-component    
              relativistic exact-decoupling methods for large 
              molecules                                       
              D. Peng, N. Middendorf, F. Weigend, M. Reiher   
              J. Chem. Phys. 138, 184105 (2013)               
                                         




              +--------------------------------------------------+
              |      general information about current run       |
              +--------------------------------------------------+

 

 DENSITY CONVERGENCE CHECK SWITCHED ON !
 SCF CONVERGENCE IF RMS(delta[D]) <     0.1000000000E-06

 TPSS meta-GGA functional
 exchange:    LDA + TPSS
 correlation: LDA (PW) + TPSS
 A DFT calculation using the RI-J approximation will be carried out.
 Allocatable memory for RI due to $ricore (MB):                   500


              +--------------------------------------------------+
              | Atomic coordinate, charge and isotop information |
              +--------------------------------------------------+

                    atomic coordinates            atom    charge  isotop
         -0.15690867    0.00135038    1.99403899    n      7.000     0
         -0.38333806   -2.15754918    0.68962473    c      6.000     0
         -0.18611086   -3.88357231    1.77149093    h      1.000     0
         -0.84429456   -2.25210695   -1.89825307    c      6.000     0
         -1.00845085   -4.05507848   -2.84247229    h      1.000     0
         -1.08599176    0.00649978   -3.22067816    c      6.000     0
         -1.44315344    0.00846617   -5.23213520    h      1.000     0
         -0.85690908    2.26246052   -1.89145802    c      6.000     0
         -1.03109278    4.06720586   -2.83042251    h      1.000     0
         -0.39554067    2.16280590    0.69611331    c      6.000     0
         -0.20818559    3.88659456    1.78309637    h      1.000     0
          0.89164086   -0.01144831   10.47233114    c      6.000     0
          1.10973424   -0.01036325   12.46601833    h      1.000     0
          0.64206518   -0.01248716    8.19285409    c      6.000     0
          0.41879760   -0.01199125    6.18123028    h      1.000     0
 
       center of nuclear mass  :   -0.27559331   -0.00001654    1.86368224
       center of nuclear charge:   -0.27930412   -0.00000426    1.84818362

              +--------------------------------------------------+
              |               basis set information              |
              +--------------------------------------------------+

              we will work with the 1s 3p 5d 7f 9g ... basis set
              ...i.e. with spherical basis functions...

   type   atoms  prim   cont   basis
   ---------------------------------------------------------------------------
    n        1     77     55   cc-pVQZ   [5s4p3d2f1g|21s6p3d2f1g]
    c        7     77     55   cc-pVQZ   [5s4p3d2f1g|21s6p3d2f1g]
    h        7     32     30   cc-pVQZ   [4s3p2d1f|6s3p2d1f]
   ---------------------------------------------------------------------------
   total:   15    840    650
   ---------------------------------------------------------------------------

   total number of primitive shells          :   78
   total number of contracted shells         :  190
   total number of cartesian basis functions :  805
   total number of SCF-basis functions       :  650


 integral neglect threshold       :  0.41E-13
 integral storage threshold THIZE :  0.10E-04
 integral storage threshold THIME :         5

 RI-J AUXILIARY BASIS SET information:

              we will work with the 1s 3p 5d 7f 9g ... basis set
              ...i.e. with spherical basis functions...

   type   atoms  prim   cont   basis
   ---------------------------------------------------------------------------
    n        1     70     49   cc-pVQZ   [6s4p3d1f1g|12s5p4d2f1g]
    c        7     70     49   cc-pVQZ   [6s4p3d1f1g|12s5p4d2f1g]
    h        7     16     11   cc-pVQZ   [3s1p1d|5s2p1d]
   ---------------------------------------------------------------------------
   total:   15    672    469
   ---------------------------------------------------------------------------

   total number of primitive shells          :   56
   total number of contracted shells         :  155
   total number of cartesian basis functions :  572
   total number of SCF-basis functions       :  469


 symmetry group of the molecule :   c1 

 the group has the following generators :
   c1(z)

    1 symmetry operations found

 there are 1 real representations :   a   

 maximum number of shells which are related by symmetry :  1


    mo occupation :
   irrep   mo's   occupied
    a      650       28
 
 number of basis functions   :                    650
 number of occupied orbitals :                     28
 
  
           ------------------
           density functional
           ------------------
 TPSS meta-GGA functional
 exchange:    LDA + TPSS
 correlation: LDA (PW) + TPSS

 iterations will be done with small grid
  
 spherical integration : Lebedev's spherical grid
 spherical gridsize    :                     5
    i.e. gridpoints    :                   590
 value for diffuse not defined
 radial integration    : Chebyshev 2nd kind (scaling 3)
 radial gridsize       :                     8
 integration cells     :                    15
 partition function    : becke
 partition sharpness   :                     3
  

 biggest AO integral is expected to be     4.161848376
  
           ------------------------
               RI-J - INFORMATION
           ------------------------
 Contributions to RI integral batches: 
  neglected integral batches:                  4656
  direct contribution:                         5442
  memory contribution:                  8047
 Memory core needed for (P|Q) and Cholesky      2 MByte
 Memory core minimum needed except of (P|Q)     1 MByte
 Total minimum memory core needed (sum)         3 MByte
  
 ****************************************
 Memory allocated for RI-J   444 MByte
 ****************************************
                                            

          ------------------------
          nuclear repulsion energy  :   292.145254074    
          ------------------------


         -----------------
         -S,T+V- integrals
         -----------------

 1e-integrals will be neglected if expon. factor < 0.415150E-14
 Difference densities >>NOT<< switched on in parallel ridft!

 DIIS switched on: error vector is FDS-SDF
 Max. Iterations for DIIS is     :   4
 DIIS matrix (see manual) 
    Scaling factor of diagonals  :  1.200
    threshold for scaling factor :  0.000

 scf convergence criterion : increment of total energy < .1000000D-08
                  and increment of one-electron energy < .1000000D-05

  MOs are in ASCII format !


 automatic virtual orbital shift switched on 
      shift if e(lumo)-e(homo) < 0.10000000    


 reading orbital data $scfmo  from file mos
 orbital characterization : expanded
 mo provided and orthogonalized by Cholesky decomposition

 DSCF restart information will be dumped onto file mos


 Starting SCF iterations

          Overall gridpoints after grid construction =         74413

 ITERATION  ENERGY          1e-ENERGY        2e-ENERGY     RMS[dD(SAO)]   TOL
   1  -324.53387013959    -1004.2807057     387.60158146    0.000D+00 0.414D-13
                            Exc = -46.2179927189     Coul =  433.819574179    
                              N = 55.999999862    
                            current damping = 0.700
 
          max. resid. norm for Fia-block=  3.062D-01 for orbital      5a         
          max. resid. fock norm         =  8.176D+00 for orbital    571a         

 ITERATION  ENERGY          1e-ENERGY        2e-ENERGY     RMS[dD(SAO)]   TOL
   2  -325.55787621601    -1012.4805328     394.77740256    0.563D-02 0.414D-13
                            Exc = -47.0121059101     Coul =  441.789508468    
                              N = 55.999995320    
                            current damping = 0.650
 
          Norm of current diis error:  3.2370    
          max. resid. norm for Fia-block=  1.392D-01 for orbital      1a         
          max. resid. fock norm         =  2.209D-01 for orbital    578a         

 ITERATION  ENERGY          1e-ENERGY        2e-ENERGY     RMS[dD(SAO)]   TOL
   3  -325.74372811229    -1014.6851836     396.79620140    0.219D-02 0.414D-13
                            Exc = -47.3033571732     Coul =  444.099558576    
                              N = 55.999994560    
                            current damping = 0.550
 
          Norm of current diis error:  1.5672    
          max. resid. norm for Fia-block=  5.774D-02 for orbital     28a         
          max. resid. fock norm         =  6.076D-02 for orbital      9a         

 ITERATION  ENERGY          1e-ENERGY        2e-ENERGY     RMS[dD(SAO)]   TOL
   4  -325.80273495443    -1015.6057185     397.65772949    0.120D-02 0.414D-13
                            Exc = -47.4185573443     Coul =  445.076286834    
                              N = 55.999991769    
                            current damping = 0.450
 
          Norm of current diis error: 0.61883    
          max. resid. norm for Fia-block=  2.859D-02 for orbital      9a         
          max. resid. fock norm         =  4.924D-02 for orbital    613a         

 ITERATION  ENERGY          1e-ENERGY        2e-ENERGY     RMS[dD(SAO)]   TOL
   5  -325.81044438735    -1016.5599957     398.60429721    0.550D-03 0.414D-13
                            Exc = -47.5206328680     Coul =  446.124930076    
                              N = 55.999992064    
                            current damping = 0.350
 
          Norm of current diis error: 0.38369    
          max. resid. norm for Fia-block=  1.443D-02 for orbital     28a         
          max. resid. fock norm         =  1.688D-02 for orbital    524a         
          mo-orthogonalization: Cholesky decomposition

 ITERATION  ENERGY          1e-ENERGY        2e-ENERGY     RMS[dD(SAO)]   TOL
   6  -325.81400306954    -1016.3261483     398.36689120    0.446D-03 0.414D-13
                            Exc = -47.5148715004     Coul =  445.881762695    
                              N = 55.999991352    
                            current damping = 0.400
 
          Norm of current diis error: 0.15826    
          max. resid. norm for Fia-block=  4.509D-03 for orbital     26a         
          max. resid. fock norm         =  8.305D-03 for orbital    643a         

 ITERATION  ENERGY          1e-ENERGY        2e-ENERGY     RMS[dD(SAO)]   TOL
   7  -325.81445187255    -1016.4392284     398.47952243    0.905D-04 0.414D-13
                            Exc = -47.5193936384     Coul =  445.998916071    
                              N = 55.999991652    
                            current damping = 0.450
 
          Norm of current diis error: 0.85408E-01
          max. resid. norm for Fia-block=  2.601D-03 for orbital     27a         
          max. resid. fock norm         =  4.908D-03 for orbital    643a         

 ITERATION  ENERGY          1e-ENERGY        2e-ENERGY     RMS[dD(SAO)]   TOL
   8  -325.81461049359    -1016.4635629     398.50369832    0.256D-04 0.414D-13
                            Exc = -47.5245697921     Coul =  446.028268117    
                              N = 55.999991595    
                            current damping = 0.300
 
          Norm of current diis error: 0.25979E-01
          max. resid. norm for Fia-block=  9.479D-04 for orbital     27a         
          max. resid. fock norm         =  1.813D-03 for orbital    643a         

 ITERATION  ENERGY          1e-ENERGY        2e-ENERGY     RMS[dD(SAO)]   TOL
   9  -325.81461458659    -1016.4744532     398.51458449    0.165D-04 0.414D-13
                            Exc = -47.5256620273     Coul =  446.040246519    
                              N = 55.999991567    
                            current damping = 0.150
 
          Norm of current diis error: 0.23684E-01
          max. resid. norm for Fia-block=  4.010D-04 for orbital     22a         
          max. resid. fock norm         =  7.780D-04 for orbital    644a         

 ITERATION  ENERGY          1e-ENERGY        2e-ENERGY     RMS[dD(SAO)]   TOL
  10  -325.81462712036    -1016.4628575     398.50297633    0.846D-05 0.414D-13
                            Exc = -47.5247593933     Coul =  446.027735724    
                              N = 55.999991589    
                            current damping = 0.200
 
          Norm of current diis error: 0.61598E-02
          max. resid. norm for Fia-block=  2.082D-04 for orbital     28a         
          max. resid. fock norm         =  3.744D-04 for orbital    523a         
          mo-orthogonalization: Cholesky decomposition

 ITERATION  ENERGY          1e-ENERGY        2e-ENERGY     RMS[dD(SAO)]   TOL
  11  -325.81462754360    -1016.4666414     398.50675983    0.440D-05 0.414D-13
                            Exc = -47.5249025661     Coul =  446.031662393    
                              N = 55.999991602    
                            current damping = 0.250
 
          Norm of current diis error: 0.44027E-02
          max. resid. norm for Fia-block=  9.525D-05 for orbital     24a         
          max. resid. fock norm         =  1.559D-04 for orbital    643a         

 ITERATION  ENERGY          1e-ENERGY        2e-ENERGY     RMS[dD(SAO)]   TOL
  12  -325.81462795412    -1016.4643977     398.50451564    0.188D-05 0.414D-13
                            Exc = -47.5248118202     Coul =  446.029327464    
                              N = 55.999991593    
                            current damping = 0.300
 
          Norm of current diis error: 0.15728E-02
          max. resid. norm for Fia-block=  4.201D-05 for orbital     27a         
          max. resid. fock norm         =  7.538D-05 for orbital    643a         

 ITERATION  ENERGY          1e-ENERGY        2e-ENERGY     RMS[dD(SAO)]   TOL
  13  -325.81462801002    -1016.4651261     398.50524400    0.493D-06 0.414D-13
                            Exc = -47.5248295983     Coul =  446.030073596    
                              N = 55.999991595    
                            current damping = 0.350
 
          Norm of current diis error: 0.40103E-03
          max. resid. norm for Fia-block=  1.371D-05 for orbital     27a         
          max. resid. fock norm         =  2.523D-05 for orbital    643a         

 ITERATION  ENERGY          1e-ENERGY        2e-ENERGY     RMS[dD(SAO)]   TOL
  14  -325.81462801279    -1016.4649266     398.50504448    0.149D-06 0.414D-13
                            Exc = -47.5248359851     Coul =  446.029880469    
                              N = 55.999991595    
                            current damping = 0.400
 
          Norm of current diis error: 0.22208E-03
          max. resid. norm for Fia-block=  5.029D-06 for orbital     24a         
          max. resid. fock norm         =  9.186D-06 for orbital    644a         

 DENSITY CONVERGED !


 ITERATION  ENERGY          1e-ENERGY        2e-ENERGY     RMS[dD(SAO)]   TOL
  15  -325.81462801392    -1016.4649405     398.50505843    0.676D-07 0.414D-13
                            Exc = -47.5248332398     Coul =  446.029891665    
                              N = 55.999991595    
                            current damping = 0.450
 
          Norm of current diis error: 0.47477E-04
          max. resid. norm for Fia-block=  1.756D-06 for orbital     25a         
          max. resid. fock norm         =  3.081D-06 for orbital    645a         
          mo-orthogonalization: Cholesky decomposition

 DENSITY CONVERGED !


 ITERATION  ENERGY          1e-ENERGY        2e-ENERGY     RMS[dD(SAO)]   TOL
  16  -325.81462801395    -1016.4649659     398.50508381    0.181D-07 0.414D-13
                            Exc = -47.5248331832     Coul =  446.029916997    
                              N = 55.999991595    
                            current damping = 0.300
 
          Norm of current diis error: 0.22134E-04
          max. resid. norm for Fia-block=  5.444D-07 for orbital     24a         
          max. resid. fock norm         =  1.141D-06 for orbital    647a         

 ENERGY & DENSITY CONVERGED !

          Overall gridpoints after grid construction =        239592

 ITERATION  ENERGY          1e-ENERGY        2e-ENERGY     RMS[dD(SAO)]   TOL
  17  -325.81450002169    -1016.4649662     398.50521211    0.763D-08 0.414D-13
                            Exc = -47.5247052779     Coul =  446.029917384    
                              N = 56.000002556    
                            current damping = 0.150
 
          Norm of current diis error: 0.80115E-05
          max. resid. norm for Fia-block=  2.079D-07 for orbital     24a         
          max. resid. fock norm         =  3.532D-07 for orbital    523a         

 End of SCF iterations

   convergence criteria satisfied after    17 iterations


                  ------------------------------------------ 
                 |  total energy      =   -325.81450002169  |
                  ------------------------------------------ 
                 :  kinetic energy    =    324.35334964912  :
                 :  potential energy  =   -650.16784967081  :
                 :  virial theorem    =      1.99551539182  :
                 :  wavefunction norm =      1.00000000000  :
                  .......................................... 


 <geterg> : there is no data group $energy 


 <skperg> : $end is missing 


 orbitals $scfmo  will be written to file mos

    irrep                 24a         25a         26a         27a         28a   
 eigenvalues H         -0.27594    -0.25257    -0.24122    -0.24092    -0.23617
            eV          -7.5087     -6.8729     -6.5640     -6.5558     -6.4266
 occupation              2.0000      2.0000      2.0000      2.0000      2.0000 

    irrep                 29a         30a         31a         32a         33a   
 eigenvalues H         -0.07030    -0.05475     0.01354     0.01365     0.01757
            eV          -1.9131     -1.4899      0.3684      0.3713      0.4780
 
 
 
 
 ==============================================================================
                           electrostatic moments
 ==============================================================================

 reference point for electrostatic moments:    0.00000   0.00000   0.00000

 
              nuc           elec       ->  total
 ------------------------------------------------------------------------------
                          charge      
 ------------------------------------------------------------------------------
          56.000000     -56.000000       0.000000
 
 ------------------------------------------------------------------------------
                       dipole moment  
 ------------------------------------------------------------------------------
   x     -15.641031      15.433281      -0.207750
   y      -0.000238       0.002293       0.002055
   z     103.498283    -104.747222      -1.248939
 
   | dipole moment | =     1.2661 a.u. =     3.2181 debye 
 
 ------------------------------------------------------------------------------
                     quadrupole moment
 ------------------------------------------------------------------------------
  xx      30.643097     -68.302839     -37.659743
  yy     180.316654    -212.122794     -31.806140
  zz    1443.065231   -1478.161610     -35.096379
  xy      -0.766735       0.748949      -0.017786
  xz     151.543223    -150.545068       0.998155
  yz      -1.542267       1.556627       0.014361
 
     1/3  trace=     -34.854087
     anisotropy=       5.368528
 
 ==============================================================================
 


    ------------------------------------------------------------------------
         total  cpu-time :  9 minutes and 35 seconds
         total wall-time :  1 minutes and 14 seconds
    ------------------------------------------------------------------------

   ****  ridft : all done  ****


    2018-04-24 21:23:22.182 

