
   OpenMP run-time library returned nthreads = 28

 ricc2 (c-16-29) : TURBOMOLE V7.3 ( 22142 ) 4 Jul 2018 at 18:12:42
 Copyright (C) 2018 TURBOMOLE GmbH, Karlsruhe


    2019-04-01 21:53:31.147 



                              R I C C 2 - PROGRAM

                          the quantum chemistry groups
                             at the universities in
                           Karlsruhe, Bochum & Mainz
                                   Germany



   *-----------------------------------------------------------------------*
   |                     program will use 28 thread(s)                     |
   *-----------------------------------------------------------------------*


              +--------------------------------------------------+
              | Atomic coordinate, charge and isotop information |
              +--------------------------------------------------+

                    atomic coordinates            atom    charge  isotop
         -2.10444837    2.50770455    0.51999037    c      6.000     0
         -0.88265827    4.43969949    0.87217940    o      8.000     0
         -1.09243062    0.25874222    0.09376344    o      8.000     0
          0.78106229    0.38409932    0.10485544    h      1.000     0
         -4.93487747    2.43054605    0.52413691    c      6.000     0
         -5.68174265    4.30268993    0.88021521    h      1.000     0
         -5.60163246    1.72958824   -1.28879555    h      1.000     0
         -5.58057710    1.11833654    1.96765922    h      1.000     0
 
       center of nuclear mass  :   -2.20408224    2.36592893    0.49411155
       center of nuclear charge:   -2.31623613    2.33599223    0.48925752

              +--------------------------------------------------+
              |               basis set information              |
              +--------------------------------------------------+

              we will work with the 1s 3p 5d 7f 9g ... basis set
              ...i.e. with spherical basis functions...

   type   atoms  prim   cont   basis
   ---------------------------------------------------------------------------
    c        2     50     30   cc-pVTZ   [4s3p2d1f|18s5p2d1f]
    o        2     50     30   cc-pVTZ   [4s3p2d1f|18s5p2d1f]
    h        4     16     14   cc-pVTZ   [3s2p1d|5s2p1d]
   ---------------------------------------------------------------------------
   total:    8    264    176
   ---------------------------------------------------------------------------

   total number of primitive shells          :   60
   total number of contracted shells         :   64
   total number of cartesian basis functions :  200
   total number of SCF-basis functions       :  176


 symmetry group of the molecule :   c1 

 the group has the following generators :
   c1(z)

    1 symmetry operations found

 there are 1 real representations :   a   


   =========================================================================


     restricted closed shell calculation for the wavefunction models:
               MP2        - Second Order Moeller Plesset PT


     global parameters for ricc2 program:

        hard restart (reuse of interm.) :  disabled
        soft restart (reuse of vectors) :  disabled
        threshold for vector function   :    0.100000E-05
        convergence threshold energy    :    0.100000E-06
        linear dependence threshold     :    0.100000E-13
        global print level              :      1
        maximum number of iterations    :   300
        maximum number DIIS vectors     :    10
        max. dim. of reduced space      :   100
        core memory limit (MB)          : *****


     MP2 energy only: Energy will be calculated directly from T2 amplitudes!

     Scratch Directory : 


   =========================================================================

    der. integral neglect threshold  :  0.10E-07
    integral neglect threshold       :  0.17E-10
    integral storage threshold THIZE :  0.10E-04
    integral storage threshold THIME :         5


                  +------------------------------------------+
                  |     Auxiliary basis set information      |
                  +------------------------------------------+

              we will work with the 1s 3p 5d 7f 9g ... basis set
              ...i.e. with spherical basis functions...

   type   atoms  prim   cont   basis
   ---------------------------------------------------------------------------
    c        2     81     81   cc-pVTZ   [8s6p5d3f1g|8s6p5d3f1g]
    o        2     81     81   cc-pVTZ   [8s6p5d3f1g|8s6p5d3f1g]
    h        4     30     30   cc-pVTZ   [4s3p2d1f|4s3p2d1f]
   ---------------------------------------------------------------------------
   total:    8    444    444
   ---------------------------------------------------------------------------

   total number of primitive shells          :   56
   total number of contracted shells         :  132
   total number of cartesian basis functions :  544
   total number of SCF-basis functions       :  444


 maximum number of shells which are related by symmetry :  1


 The symmetry information takes   1 MB

*---------------------------------------------------------------------*
|               simplified C1 algorithm will be applied               |
*---------------------------------------------------------------------*
  MOs are in ASCII format !


 reading orbital data $scfmo  from file mos
 orbital characterization : scfconv=9



              +--------------------------------------------+
              | list of orbitals that will be kept frozen: |
              +--------------------------------------------+
              |   irrep   index      energy     occ/vir    |
              +--------------------------------------------+
              |   a         1      -20.6202     occupied   |
              |   a         2      -20.5401     occupied   |
              |   a         3      -11.3860     occupied   |
              |   a         4      -11.2417     occupied   |
              +--------------------------------------------+



   Molecular Orbital Statistic:
   ============================

   -----------------------------
   orbitals in total:
   -----------------------------
    frozen occupied :      4
    active occupied :     12
    active virtual  :    160
    frozen virtual  :      0
    all together    :    176
   -----------------------------


     time in riccmos       cpu:  1.29 sec    wall:  0.06 sec    ratio: 23.1

     total memory allocated for calculation of (Q|P)**(-1/2) : 3 MiB


     calculation of (P|Q) ...
     time in lp2sym        cpu:  0.87 sec    wall:  0.04 sec    ratio: 24.2


     calculation of the Cholesky decomposition of (P|Q)**(-1) ...
     time in invmetri      cpu:  0.95 sec    wall:  0.04 sec    ratio: 27.0

   threshold for RMS(d[D]) in SCF was     :  0.10E-06
   integral neglect threshold             :  0.17E-10
   derivative integral neglect threshold  :  0.10E-07


   =========================================================================

     Energy of reference wave function is  -227.8991971426000
     Maximum orbital residual is           0.1553094986960E-05


     Number of symmetry-nonredundant auxiliary basis functions:      444

     Block lengths for integral files:
        frozen occupied (BOI):        1 MiB
        active occupied (BJI):        1 MiB
        active virtual  (BAI):        1 MiB
        frozen virtual  (BGI):        0 MiB
               general  (BTI):        1 MiB

   =========================================================================




   **************************************************************************
   *                                                                        *
   *          OPTIMIZATION OF THE GROUND STATE CLUSTER AMPLITUDES           *
   *                                                                        *
   **************************************************************************


   Iter.   MP2 energy       Norm(Omega)   Norm(t1)  Norm(t2)     cpu    wall
   ...........................................................................
    1   -228.7015562338     ------          0.00000   0.27388    0.04    0.00
   ...........................................................................


     time in total         cpu:  2.35 sec    wall:  0.11 sec    ratio: 22.2


     **********************************************************************
     *                                                                    *
     *   RHF  energy                             :   -227.8991971426      *
     *   MP2 correlation energy (doubles)        :     -0.8023590912      *
     *                                                                    *
     *   Final MP2 energy                        :   -228.7015562338      *
     *                                                                    *
     *    E(S)   =     -0.5011066046      E(T)   =     -0.3012524866      *
     *    E(OS)  =     -0.6015241002      E(SS)  =     -0.2008349911      *
     *                                                                    *
     *   SCS-MP2 energy                          :   -228.6879710598      *
     *   (computed with  C(OS) =   1.2000  and  C(SS) =   0.3333)         *
     *                                                                    *
     *   SOS-MP2 energy                          :   -228.6811784728      *
     *   (computed with  C(OS) =   1.3000)                                *
     *                                                                    *
     *   Norm of MP1 T2 amplitudes               :      0.2738779073      *
     *                                                                    *
     **********************************************************************



    ------------------------------------------------------------------------
         total  cpu-time :  15.67 seconds
         total wall-time :   0.71 seconds
    ------------------------------------------------------------------------

   ****  ricc2 : all done  ****


    2019-04-01 21:53:31.794 

