Using Slurm to start processes with PMI2
STARTING ridft ON 8 PROCESSORS!
RUNNING PROGRAM /beegfs/modfac/apps/TURBOMOLE/7.0_intel_GA/bin/em64t-unknown-linux-gnu_mpi/ridft_mpi.
PLEASE WAIT UNTIL ridft HAS FINISHED.
Look for the output in slave1.output.
  this is node-proc. number 1 running on node c-16-33.local
  the total number of node-proc. spawned is            8
  parallel platform: MPP, or cluster with fast interconnect

 ridft (c-16-33.local) : TURBOMOLE V7.0.2( ) 15 Jan 2016 at 17:47:42
 Copyright (C) 2016 TURBOMOLE GmbH, Karlsruhe


    2017-11-01 20:15:54.153 



                                  r i d f t

                        DFT program with RI approximation 
                                for coulomb part 




                                                 
                                 References:     
                                                 
          TURBOMOLE:                             
              R. Ahlrichs, M. Baer, M. Haeser, H. Horn, and
              C. Koelmel
              Electronic structure calculations on workstation
              computers: the program system TURBOMOLE
              Chem. Phys. Lett. 162: 165 (1989)
          Density Functional:                              
              O. Treutler and R. Ahlrichs                      
              Efficient Molecular Numerical Integration Schemes
              J. Chem. Phys. 102: 346 (1995)                   
          Parallel Version:                                
              Performance of parallel TURBOMOLE for Density    
              Functional Calculations                          
              M. v. Arnim and R. Ahlrichs                      
              J. Comp. Chem. 19: 1746 (1998)                   
          RI-J Method:                                     
              Auxiliary Basis Sets to approximate Coulomb      
              Potentials                                       
              Chem. Phys. Lett. 240: 283 (1995)                
              K. Eichkorn, O. Treutler, H. Oehm, M. Haeser     
              and R. Ahlrichs                                  
              Chem. Phys. Lett. 242: 652 (1995)                
                                                           
              Auxiliary Basis Sets for Main Row Atoms and their
              Use to approximate Coulomb Potentials            
              K. Eichkorn, F. Weigend, O. Treutler and         
              R. Ahlrichs                                      
              Theo. Chem. Acc. 97: 119 (1997)                   
                                                           
              Accurate Coulomb-fitting basis sets for H to Rn 
              F. Weigend                                        
              Phys. Chem. Chem. Phys. 8: 1057 (2006)            
                                                           
          Multipole accelerated RI-J (MARI-J):             
              Fast evaluation of the Coulomb potential for     
              electron densities using multipole accelerated   
              resolution of identity approximation             
              M. Sierka, A. Hogekamp and R. Ahlrichs           
              J. Chem. Phys. 118: 9136 (2003)                  
          RI-JK Method:                                     
              A fully direct RI-HF algorithm: Implementation,
              optimised auxiliary basis sets, demonstration of
              accuracy and efficiency                         
              F. Weigend                                      
              Phys. Chem. Chem. Phys. 4: 4285 (2002)           
          Two-component HF and DFT with spin-orbit coupling:  
              Self-consistent treatment of spin-orbit         
              interactions with efficient Hartree-Fock and    
              density functional methods                      
              M. K. Armbruster, F. Weigend, C. van Wüllen and 
              W. Klopper                                      
              Phys. Chem. Chem. Phys. 10: 1748 (2008)         
          Relativistic all-electron 2c calculations           
              An efficient implementation of two-component    
              relativistic exact-decoupling methods for large 
              molecules                                       
              D. Peng, N. Middendorf, F. Weigend, M. Reiher   
              J. Chem. Phys. 138, 184105 (2013)               
                                         


 


              +--------------------------------------------------+
              |      general information about current run       |
              +--------------------------------------------------+

 

 SCF run will be profiled !


 DENSITY CONVERGENCE CHECK SWITCHED ON !
 SCF CONVERGENCE IF RMS(delta[D]) <     0.1000000000E-06

 PBE functional
 exchange:    LDA + PBE
 correlation: LDA (PW) + PBE
 A DFT calculation using the RI-J approximation will be carried out.
 Allocatable memory for RI due to $ricore (MB):       10000


              +--------------------------------------------------+
              | Atomic coordinate, charge and isotop information |
              +--------------------------------------------------+

                    atomic coordinates            atom    charge  isotop
         -2.28170963    0.00000000   -2.34009961    c      6.000     0
         -2.27274361    0.00000000    0.29854732    c      6.000     0
          0.00000000    0.00000000   -3.67272512    c      6.000     0
          0.00000000    0.00000000    1.65224385    c      6.000     0
          2.28170963    0.00000000   -2.34009961    c      6.000     0
          2.27274361    0.00000000    0.29854732    c      6.000     0
          0.00000000    0.00000000    4.58243267    c      6.000     0
          2.15490929    0.00000000    5.59892366    o      8.000     0
         -2.15490929    0.00000000    5.59892366    o      8.000     0
         -4.06540167    0.00000000   -3.36943437    h      1.000     0
         -4.00977500    0.00000000    1.39631906    h      1.000     0
          0.00000000    0.00000000   -5.73046351    h      1.000     0
          4.06540167    0.00000000   -3.36943437    h      1.000     0
          4.00977500    0.00000000    1.39631906    h      1.000     0
 
       center of nuclear mass  :    0.00000000    0.00000000    1.24783966
       center of nuclear charge:   -0.00000000    0.00000000    1.12347881

              +--------------------------------------------------+
              |               basis set information              |
              +--------------------------------------------------+

              we will work with the 1s 3p 5d 7f 9g ... basis set
              ...i.e. with spherical basis functions...

   type   atoms  prim   cont   basis
   ---------------------------------------------------------------------------
    c        7     50     30   cc-pVTZ   [4s3p2d1f|18s5p2d1f]
    o        2     50     30   cc-pVTZ   [4s3p2d1f|18s5p2d1f]
    h        5     16     14   cc-pVTZ   [3s2p1d|5s2p1d]
   ---------------------------------------------------------------------------
   total:   14    530    340
   ---------------------------------------------------------------------------

   total number of primitive shells          :   60
   total number of contracted shells         :  120
   total number of cartesian basis functions :  390
   total number of SCF-basis functions       :  340


 integral neglect threshold       :  0.85E-13
 integral storage threshold THIZE :  0.10E-04
 integral storage threshold THIME :         5

 RI-J AUXILIARY BASIS SET information:

              we will work with the 1s 3p 5d 7f 9g ... basis set
              ...i.e. with spherical basis functions...

   type   atoms  prim   cont   basis
   ---------------------------------------------------------------------------
    c        7     70     49   cc-pVTZ   [6s4p3d1f1g|12s5p4d2f1g]
    o        2     70     49   cc-pVTZ   [6s4p3d1f1g|12s5p4d2f1g]
    h        5     16     11   cc-pVTZ   [3s1p1d|5s2p1d]
   ---------------------------------------------------------------------------
   total:   14    710    496
   ---------------------------------------------------------------------------

   total number of primitive shells          :   56
   total number of contracted shells         :  160
   total number of cartesian basis functions :  609
   total number of SCF-basis functions       :  496


 symmetry group of the molecule :   c1 

 the group has the following generators :
   c1(z)

    1 symmetry operations found

 there are 1 real representations :   a   

 maximum number of shells which are related by symmetry :  1


    mo occupation :
   irrep   mo's   occupied
    a      340       32
 
 number of basis functions   :          340
 number of occupied orbitals :           32
 
  
           ------------------
           density functional
           ------------------
 PBE functional
 exchange:    LDA + PBE
 correlation: LDA (PW) + PBE
 grinp -> nfun, dfgga, dfhybrid 
           6 T F
 iterations will be done with small grid
  
 spherical integration : Lebedev's spherical grid
 spherical gridsize    :           5
    i.e. gridpoints    :         590
 value for diffuse not defined
 radial integration    : Chebyshev 2nd kind (scaling 3)
 radial gridsize       :           8
 integration cells     :          14
 partition function    : becke
 partition sharpness   :           3
  

 <rddim> : input of entry tasksize
           from data group '$pardft' failed !

               Default values taken

 <rddim> : input of entry memdiv
           from data group '$pardft' failed !

               Default values taken
  RIDFT: memory allocation for DFT gridpoints
  MEMORY is divided by 1 as DEFAULT
 Each node can hold at most  the            1 -th part
 of the gridpoints    

 biggest AO integral is expected to be     4.866064444
  
           ------------------------
               RI-J - INFORMATION
           ------------------------
 
 
 **************************************************
 *      MEMORY ALLOCATION FOR PARALLEL RI-DFT     *
 **************************************************
 
 
MEMORY FOR (MU NU/ ALPHA), SEQUENTIAL RUN               9999 MByte
 
            DIFFERENCE IN MEMORY NEED:       DIAG./SLAVE  
 
      TOTAL DIFFERENCE :                      7 MByte
 
      difference in xcore:                    2 MByte
      difference in fatmat:                   2 MByte
      getcor calls skipped by slaves:         3 MByte
 
 
           Integral memory available for diagonal.      9999 MByte
 
           Integral memory available for slave             0 MByte
 
         MEMORY FOR (MU NU/ ALPHA) ON DIAGONALIZER      9999 MByte
 
         MEMORY FOR (MU NU/ ALPHA) ON ONE SLAVE            0 MByte
 
         TOTAL MEMORY FOR (MU NU/ ALPHA),ALL NODES      9999 MByte
 
 Contributions to RI integral batches: 
  neglected integral batches:         735
  direct contribution:                  0
  memory contribution:        6525
 Memory core needed for (P|Q) and Cholesky      2 MByte
 Memory core minimum needed except of (P|Q)     1 MByte
 Total minimum memory core needed (sum)         3 MByte
  
 ****************************************
 Memory allocated for RI-J 10001 MByte
 ****************************************
                                            

          ------------------------
          nuclear repulsion energy  :   390.759859890    
          ------------------------

 
          -----------------
          -S integrals
          -----------------

 1e-integrals will be neglected if expon. factor < 0.856913E-14
 
          -----------------
          -T+V integrals
          -----------------

 1e-integrals will be neglected if expon. factor < 0.856913E-14
 Difference densities >>NOT<< switched on in parallel ridft!

 DIIS switched on: error vector is FDS-SDF
 Max. Iterations for DIIS is     :   4
 DIIS matrix (see manual) 
    Scaling factor of diagonals  :  1.200
    threshold for scaling factor :  0.000

 scf convergence criterion : increment of total energy < .1000000D-08
                  and increment of one-electron energy < .1000000D-05


 <geterg> : there is no data group $energy 

  MOs are in ASCII format !


 reading orbital data $scfmo  from file mos . 

 orbital characterization : expanded
 
 mo provided and orthogonalized by Cholesky decomposition

 DSCF restart information will be dumped onto file mos


 Starting SCF iterations


 ITERATION  ENERGY          1e-ENERGY        2e-ENERGY     RMS[dD(SAO)]   TOL
   1  -418.26900410245    -1347.9403566     538.91149258    0.000D+00 0.855D-13
                            Exc = -56.4220809718     Coul =  595.333573556    
                              N = 64.000024770    
                            current damping = 0.700
 
          max. resid. norm for Fia-block=  4.031D-01 for orbital     20a         
          max. resid. fock norm         =  4.609D+00 for orbital    320a         

 ITERATION  ENERGY          1e-ENERGY        2e-ENERGY     RMS[dD(SAO)]   TOL
   2  -419.64368663240    -1354.0020104     543.59846393    0.470D-02 0.855D-13
                            Exc = -56.4588262946     Coul =  600.057290220    
                              N = 64.000009067    
                            current damping = 0.650
 
          Norm of current diis error:  2.3112    
          max. resid. norm for Fia-block=  1.575D-01 for orbital      1a         
          max. resid. fock norm         =  3.944D-01 for orbital    333a         

 ITERATION  ENERGY          1e-ENERGY        2e-ENERGY     RMS[dD(SAO)]   TOL
   3  -419.84313902290    -1356.6549721     546.05197322    0.371D-02 0.855D-13
                            Exc = -56.7345389114     Coul =  602.786512133    
                              N = 64.000002447    
                            current damping = 0.550
 
          Norm of current diis error:  1.1343    
          max. resid. norm for Fia-block=  6.399D-02 for orbital      1a         
          max. resid. fock norm         =  8.002D-02 for orbital    333a         

 ITERATION  ENERGY          1e-ENERGY        2e-ENERGY     RMS[dD(SAO)]   TOL
   4  -419.90735890133    -1356.5726339     545.90541509    0.372D-02 0.855D-13
                            Exc = -56.6619051430     Coul =  602.567320228    
                              N = 63.999997270    
                            current damping = 0.600
 
          Norm of current diis error: 0.46597    
          max. resid. norm for Fia-block=  3.365D-02 for orbital     10a         
          max. resid. fock norm         =  5.786D-02 for orbital    333a         

 ITERATION  ENERGY          1e-ENERGY        2e-ENERGY     RMS[dD(SAO)]   TOL
   5  -419.91767603654    -1357.2742060     546.59667003    0.140D-02 0.855D-13
                            Exc = -56.7559755062     Coul =  603.352645531    
                              N = 63.999996037    
                            current damping = 0.650
 
          Norm of current diis error: 0.23125    
          max. resid. norm for Fia-block=  1.007D-02 for orbital     29a         
          max. resid. fock norm         =  1.614D-02 for orbital    307a         
          mo-orthogonalization: Cholesky decomposition

 ITERATION  ENERGY          1e-ENERGY        2e-ENERGY     RMS[dD(SAO)]   TOL
   6  -419.92069357074    -1357.3233063     546.64275279    0.945D-03 0.855D-13
                            Exc = -56.7412205797     Coul =  603.383973372    
                              N = 63.999994905    
                            current damping = 0.500
 
          Norm of current diis error: 0.85733E-01
          max. resid. norm for Fia-block=  4.612D-03 for orbital     31a         
          max. resid. fock norm         =  7.436D-03 for orbital    333a         

 ITERATION  ENERGY          1e-ENERGY        2e-ENERGY     RMS[dD(SAO)]   TOL
   7  -419.92118657980    -1357.2366380     546.55559158    0.513D-03 0.855D-13
                            Exc = -56.7383902263     Coul =  603.293981802    
                              N = 63.999994467    
                            current damping = 0.550
 
          Norm of current diis error: 0.41308E-01
          max. resid. norm for Fia-block=  2.324D-03 for orbital     10a         
          max. resid. fock norm         =  4.377D-03 for orbital     22a         

 ITERATION  ENERGY          1e-ENERGY        2e-ENERGY     RMS[dD(SAO)]   TOL
   8  -419.92127813000    -1357.3085361     546.62739811    0.118D-03 0.855D-13
                            Exc = -56.7447485083     Coul =  603.372146614    
                              N = 63.999994334    
                            current damping = 0.600
 
          Norm of current diis error: 0.13771E-01
          max. resid. norm for Fia-block=  6.313D-04 for orbital     29a         
          max. resid. fock norm         =  1.121D-03 for orbital    306a         

 ITERATION  ENERGY          1e-ENERGY        2e-ENERGY     RMS[dD(SAO)]   TOL
   9  -419.92129238614    -1357.3235722     546.64241991    0.613D-04 0.855D-13
                            Exc = -56.7453503987     Coul =  603.387770306    
                              N = 63.999994277    
                            current damping = 0.450
 
          Norm of current diis error: 0.49227E-02
          max. resid. norm for Fia-block=  3.709D-04 for orbital     31a         
          max. resid. fock norm         =  3.910D-04 for orbital     31a         

 ITERATION  ENERGY          1e-ENERGY        2e-ENERGY     RMS[dD(SAO)]   TOL
  10  -419.92129472659    -1357.3119125     546.63075791    0.415D-04 0.855D-13
                            Exc = -56.7442235443     Coul =  603.374981451    
                              N = 63.999994237    
                            current damping = 0.500
 
          Norm of current diis error: 0.27552E-02
          max. resid. norm for Fia-block=  1.987D-04 for orbital     31a         
          max. resid. fock norm         =  3.157D-04 for orbital    333a         
          mo-orthogonalization: Cholesky decomposition

 ITERATION  ENERGY          1e-ENERGY        2e-ENERGY     RMS[dD(SAO)]   TOL
  11  -419.92129507564    -1357.3150200     546.63386502    0.897D-05 0.855D-13
                            Exc = -56.7449956290     Coul =  603.378860645    
                              N = 63.999994234    
                            current damping = 0.550
 
          Norm of current diis error: 0.21949E-02
          max. resid. norm for Fia-block=  9.443D-05 for orbital     29a         
          max. resid. fock norm         =  1.901D-04 for orbital    338a         

 ITERATION  ENERGY          1e-ENERGY        2e-ENERGY     RMS[dD(SAO)]   TOL
  12  -419.92129525726    -1357.3189586     546.63780348    0.431D-05 0.855D-13
                            Exc = -56.7451171948     Coul =  603.382920674    
                              N = 63.999994230    
                            current damping = 0.400
 
          Norm of current diis error: 0.98449E-03
          max. resid. norm for Fia-block=  5.254D-05 for orbital     31a         
          max. resid. fock norm         =  7.177D-05 for orbital    338a         

 ITERATION  ENERGY          1e-ENERGY        2e-ENERGY     RMS[dD(SAO)]   TOL
  13  -419.92129530317    -1357.3174342     546.63627901    0.428D-05 0.855D-13
                            Exc = -56.7448882091     Coul =  603.381167223    
                              N = 63.999994228    
                            current damping = 0.450
 
          Norm of current diis error: 0.64258E-03
          max. resid. norm for Fia-block=  2.112D-05 for orbital     26a         
          max. resid. fock norm         =  3.486D-05 for orbital    333a         

 ITERATION  ENERGY          1e-ENERGY        2e-ENERGY     RMS[dD(SAO)]   TOL
  14  -419.92129531847    -1357.3165609     546.63540568    0.114D-05 0.855D-13
                            Exc = -56.7448556162     Coul =  603.380261294    
                              N = 63.999994227    
                            current damping = 0.300
 
          Norm of current diis error: 0.24332E-03
          max. resid. norm for Fia-block=  9.822D-06 for orbital     30a         
          max. resid. fock norm         =  1.759D-05 for orbital    251a         

 ITERATION  ENERGY          1e-ENERGY        2e-ENERGY     RMS[dD(SAO)]   TOL
  15  -419.92129532158    -1357.3168883     546.63573310    0.728D-06 0.855D-13
                            Exc = -56.7449046239     Coul =  603.380637722    
                              N = 63.999994227    
                            current damping = 0.350
 
          Norm of current diis error: 0.73665E-04
          max. resid. norm for Fia-block=  3.278D-06 for orbital     28a         
          max. resid. fock norm         =  5.480D-06 for orbital    150a         
          mo-orthogonalization: Cholesky decomposition

 ITERATION  ENERGY          1e-ENERGY        2e-ENERGY     RMS[dD(SAO)]   TOL
  16  -419.92129532180    -1357.3170044     546.63584918    0.183D-06 0.855D-13
                            Exc = -56.7449071049     Coul =  603.380756283    
                              N = 63.999994227    
                            current damping = 0.200
 
          Norm of current diis error: 0.32319E-04
          max. resid. norm for Fia-block=  1.030D-06 for orbital     31a         
          max. resid. fock norm         =  1.545D-06 for orbital     14a         

 DENSITY CONVERGED !


 ITERATION  ENERGY          1e-ENERGY        2e-ENERGY     RMS[dD(SAO)]   TOL
  17  -419.92129532185    -1357.3169776     546.63582237    0.810D-07 0.855D-13
                            Exc = -56.7449090522     Coul =  603.380731427    
                              N = 63.999994227    
                            current damping = 0.250
 
          Norm of current diis error: 0.71281E-05
          max. resid. norm for Fia-block=  3.541D-07 for orbital     30a         
          max. resid. fock norm         =  5.162D-07 for orbital    335a         

 DENSITY CONVERGED !


 ITERATION  ENERGY          1e-ENERGY        2e-ENERGY     RMS[dD(SAO)]   TOL
  18  -419.92129532185    -1357.3169653     546.63581007    0.257D-07 0.855D-13
                            Exc = -56.7449071423     Coul =  603.380717216    
                              N = 63.999994227    
                            current damping = 0.100
 
          Norm of current diis error: 0.45574E-05
          max. resid. norm for Fia-block=  1.601D-07 for orbital     31a         
          max. resid. fock norm         =  1.904D-07 for orbital     31a         

 ENERGY & DENSITY CONVERGED !


 ITERATION  ENERGY          1e-ENERGY        2e-ENERGY     RMS[dD(SAO)]   TOL
  19  -419.92130644931    -1357.3169725     546.63580618    0.143D-07 0.855D-13
                            Exc = -56.7449192799     Coul =  603.380725464    
                              N = 64.000002525    
                            current damping = 0.150
 
          Norm of current diis error: 0.73104E-06
          max. resid. norm for Fia-block=  4.548D-08 for orbital     30a         
          max. resid. fock norm         =  5.606D-08 for orbital     75a         

 End of SCF iterations

   convergence criteria satisfied after   19 iterations


                  ------------------------------------------ 
                 |  total energy      =   -419.92130644931  |
                  ------------------------------------------ 
                 :  kinetic energy    =    417.34528705511  :
                 :  potential energy  =   -837.26659350442  :
                 :  virial theorem    =      1.99386547109  :
                 :  wavefunction norm =      1.00000000000  :
                  .......................................... 


 <geterg> : there is no data group $energy 


 <skperg> : $end is missing 


 orbitals $scfmo  will be written to file mos

    irrep                 28a         29a         30a         31a         32a   
 eigenvalues H         -0.09174    -0.07825    -0.02137    -0.00760     0.00323
            eV          -2.4963     -2.1294     -0.5814     -0.2068      0.0879
 occupation              2.0000      2.0000      2.0000      2.0000      2.0000 

    irrep                 33a         34a         35a         36a         37a   
 eigenvalues H          0.09256     0.09952     0.13837     0.16931     0.18826
            eV           2.5188      2.7082      3.7653      4.6071      5.1229
 

    !!!!!!!!!!!!!!!!!!!!!!!!!!!!!!!!!!!!!!!!!!!!!!!!!!!!!!!!!!!!!!!!!!!!!!!
    !                                                                     !
    ! WARNING : ORBITAL ENERGIES SHOULD BE NEGATIVE FOR OCCUPIED ORBITALS !
    !                                                                     !
    !      orbital energy (   0.00323) of occupied MO  32a    is > 0      !
    !!!!!!!!!!!!!!!!!!!!!!!!!!!!!!!!!!!!!!!!!!!!!!!!!!!!!!!!!!!!!!!!!!!!!!!

 
 ! grave: sending quit signal to master process
 
 
 
 
 ==============================================================================
                           electrostatic moments
 ==============================================================================

 reference point for electrostatic moments:    0.00000   0.00000   0.00000

 
              nuc           elec       ->  total
 ------------------------------------------------------------------------------
                          charge      
 ------------------------------------------------------------------------------
          63.000000     -64.000000      -1.000000
 
 ------------------------------------------------------------------------------
                       dipole moment  
 ------------------------------------------------------------------------------
   x       0.000000       0.000000       0.000000
   y       0.000000      -0.000000      -0.000000
   z      70.779165     -75.078900      -4.299735
 
   | dipole moment | =     4.2997 a.u. =    10.9288 debye 
 
 ------------------------------------------------------------------------------
                     quadrupole moment
 ------------------------------------------------------------------------------
  xx     263.968465    -308.705415     -44.736950
  yy       0.000000     -41.643110     -41.643110
  zz     851.098351    -920.988685     -69.890333
  xy       0.000000      -0.000000      -0.000000
  xz       0.000000       0.000000       0.000000
  yz       0.000000       0.000000       0.000000
 
     1/3  trace=     -52.090131
     anisotropy=      26.834401
 
 ==============================================================================
 

    ridft profiling
  --------------------------------------------------------------------
             module   cpu total (s)       %  wall total (s)       %

               RIDFT            35.5  100.00            35.8  100.00
         Ridft_b_scf             1.8    5.20             1.9    5.17
        b_scf_prelim             0.0    0.00             0.0    0.01
        b_scf_molinp             0.0    0.03             0.0    0.03
         b_scf_init0             0.0    0.00             0.0    0.00
        b_scf_auxbas             0.0    0.03             0.0    0.03
      b_scf_symmetry             0.0    0.00             0.0    0.00
         b_scf_cosmo             0.0    0.00             0.0    0.00
        b_scf_params             0.1    0.29             0.1    0.29
          b_scf_ri-j             1.6    4.47             1.6    4.45
    b_scf_ri-j_auxpq             1.6    4.47             1.6    4.44
     ri-j_auxpq_chol             0.0    0.06             0.0    0.06
         b_scf_1elec             0.1    0.15             0.1    0.15
       b_scf_moinput             0.1    0.21             0.1    0.21
     moinput_orthmos             0.1    0.17             0.1    0.17
    b_scf_dft-dstmax             0.0    0.00             0.0    0.00
           Ridft_scf            33.6   94.69            33.9   94.68
          Scf_b_loop             0.0    0.01             0.0    0.01
                noga             0.0    0.00             0.0    0.00
            Scf_loop            33.5   94.42            33.8   94.40
     scf_loop_mkdmat             0.1    0.28             0.1    0.28
       scf_loop_ri-j             3.9   10.93             3.9   10.86
      parlp1.bc.dens             1.0    2.72             1.0    2.70
        parlp1.gs.gp             0.0    0.01             0.0    0.00
        parlp2.bc.gq             0.0    0.00             0.0    0.00
        scf_loop_dft            26.1   73.43            26.3   73.54
      pardft.bc.dens             0.0    0.00             0.0    0.00
        dft_grid_con             0.2    0.44             0.2    0.44
           dft_xcrhf            24.7   69.56            24.9   69.71
          dft_getval             3.8   10.61             3.8   10.76
          funct2 dst             0.1    0.30             0.1    0.33
      funct2 f2loop1             1.1    3.15             1.1    3.12
      funct2 f2loop2             1.5    4.14             1.5    4.09
          funct2 s+c             0.8    2.31             0.9    2.43
        funct2 cmf_2             0.6    1.77             0.7    1.93
          dft_mkdens            10.2   28.82            10.2   28.63
         dft_gga-fun             0.2    0.51             0.2    0.68
          dft_mkfock            10.3   29.10            10.4   29.09
     pardft.red.fock             2.5    7.11             2.6    7.17
     scf_loop_energy             0.0    0.01             0.0    0.00
     scf_loop_mkfock             0.0    0.00             0.0    0.01
       scf_loop_diis             0.3    0.91             0.3    0.90
       scf_loop_diag             1.6    4.59             1.6    4.56
         diag_tritrn             0.2    0.70             0.2    0.69
          diag_rdiag             1.4    3.87             1.4    3.85
     scf_loop_modump             1.4    3.90             1.4    3.88
      scf_loop_ortho             0.1    0.24             0.1    0.24
          Scf_a_loop             0.1    0.27             0.1    0.27
         Ridft_a_scf             0.0    0.11             0.1    0.15
         a_scf_fanal             0.0    0.10             0.0    0.10
 


    ------------------------------------------------------------------------
         total  cpu-time :  35.71 seconds
         total wall-time :  35.98 seconds
    ------------------------------------------------------------------------


   ****  ridft : all done  ****


    2017-11-01 20:16:30.131 

