 operating system is UNIX !

 ridft (c-9-414.gp.local) : TURBOMOLE V7.2 ( 21454 ) 4 Oct 2017 at 12:48:15
 Copyright (C) 2017 TURBOMOLE GmbH, Karlsruhe


    2018-05-18 15:35:59.121 



                                  r i d f t

                        DFT program with RI approximation 
                                for coulomb part 




                                                 
                                 References:     
                                                 
          TURBOMOLE:                             
              R. Ahlrichs, M. Baer, M. Haeser, H. Horn, and
              C. Koelmel
              Electronic structure calculations on workstation
              computers: the program system TURBOMOLE
              Chem. Phys. Lett. 162: 165 (1989)
          Density Functional:                              
              O. Treutler and R. Ahlrichs                      
              Efficient Molecular Numerical Integration Schemes
              J. Chem. Phys. 102: 346 (1995)                   
          Parallel Version:                                
              Performance of parallel TURBOMOLE for Density    
              Functional Calculations                          
              M. v. Arnim and R. Ahlrichs                      
              J. Comp. Chem. 19: 1746 (1998)                   
          RI-J Method:                                     
              Auxiliary Basis Sets to approximate Coulomb      
              Potentials                                       
              Chem. Phys. Lett. 240: 283 (1995)                
              K. Eichkorn, O. Treutler, H. Oehm, M. Haeser     
              and R. Ahlrichs                                  
              Chem. Phys. Lett. 242: 652 (1995)                
                                                           
              Auxiliary Basis Sets for Main Row Atoms and their
              Use to approximate Coulomb Potentials            
              K. Eichkorn, F. Weigend, O. Treutler and         
              R. Ahlrichs                                      
              Theo. Chem. Acc. 97: 119 (1997)                   
                                                           
              Accurate Coulomb-fitting basis sets for H to Rn 
              F. Weigend                                        
              Phys. Chem. Chem. Phys. 8: 1057 (2006)            
                                                           
          Multipole accelerated RI-J (MARI-J):             
              Fast evaluation of the Coulomb potential for     
              electron densities using multipole accelerated   
              resolution of identity approximation             
              M. Sierka, A. Hogekamp and R. Ahlrichs           
              J. Chem. Phys. 118: 9136 (2003)                  
          RI-JK Method:                                     
              A fully direct RI-HF algorithm: Implementation,
              optimised auxiliary basis sets, demonstration of
              accuracy and efficiency                         
              F. Weigend                                      
              Phys. Chem. Chem. Phys. 4: 4285 (2002)           
          Two-component HF and DFT with spin-orbit coupling:  
              Self-consistent treatment of spin-orbit         
              interactions with efficient Hartree-Fock and    
              density functional methods                      
              M. K. Armbruster, F. Weigend, C. van Wüllen and 
              W. Klopper                                      
              Phys. Chem. Chem. Phys. 10: 1748 (2008)         
          Relativistic all-electron 2c calculations           
              An efficient implementation of two-component    
              relativistic exact-decoupling methods for large 
              molecules                                       
              D. Peng, N. Middendorf, F. Weigend, M. Reiher   
              J. Chem. Phys. 138, 184105 (2013)               
                                         




              +--------------------------------------------------+
              |      general information about current run       |
              +--------------------------------------------------+

 
 PBE functional
 exchange:    LDA + PBE
 correlation: LDA (PW) + PBE
 A DFT calculation using the RI-J approximation will be carried out.
 Allocatable memory for RI due to $ricore (MB):                   500


              +--------------------------------------------------+
              | Atomic coordinate, charge and isotop information |
              +--------------------------------------------------+

                    atomic coordinates            atom    charge  isotop
          4.15980206   -0.06882548   -0.00630864    n      7.000     0
          4.86017151    0.89073306    1.49249436    h      1.000     0
          4.86040449    0.80864725   -1.55448347    h      1.000     0
          5.06262237   -2.68804910    0.06448278    c      6.000     0
          4.32206736   -3.69721062   -1.56482347    h      1.000     0
          7.11620884   -2.88974934    0.07021714    h      1.000     0
          4.32161087   -3.60783582    1.74564389    h      1.000     0
 
       center of nuclear mass  :    4.66089113   -1.34632322    0.02822824
       center of nuclear charge:    4.72082287   -1.39474936    0.02954359

              +--------------------------------------------------+
              |               basis set information              |
              +--------------------------------------------------+

              we will work with the 1s 3p 5d 7f 9g ... basis set
              ...i.e. with spherical basis functions...

   type   atoms  prim   cont   basis
   ---------------------------------------------------------------------------
    n        1     77     57   def2-QZVP   [7s4p3d2f1g|15s8p3d2f1g]
    h        5     33     30   def2-QZVP   [4s3p2d1f|7s3p2d1f]
    c        1     77     57   def2-QZVP   [7s4p3d2f1g|15s8p3d2f1g]
   ---------------------------------------------------------------------------
   total:    7    319    264
   ---------------------------------------------------------------------------

   total number of primitive shells          :   71
   total number of contracted shells         :   84
   total number of cartesian basis functions :  319
   total number of SCF-basis functions       :  264


 integral neglect threshold       :  0.10E-12
 integral storage threshold THIZE :  0.10E-04
 integral storage threshold THIME :         5

 RI-J AUXILIARY BASIS SET information:

              we will work with the 1s 3p 5d 7f 9g ... basis set
              ...i.e. with spherical basis functions...

   type   atoms  prim   cont   basis
   ---------------------------------------------------------------------------
    n        1     70     49   def2-QZVP   [6s4p3d1f1g|12s5p4d2f1g]
    h        5     16     11   def2-QZVP   [3s1p1d|5s2p1d]
    c        1     70     49   def2-QZVP   [6s4p3d1f1g|12s5p4d2f1g]
   ---------------------------------------------------------------------------
   total:    7    220    153
   ---------------------------------------------------------------------------

   total number of primitive shells          :   56
   total number of contracted shells         :   55
   total number of cartesian basis functions :  182
   total number of SCF-basis functions       :  153


 symmetry group of the molecule :   c1 

 the group has the following generators :
   c1(z)

    1 symmetry operations found

 there are 1 real representations :   a   

 maximum number of shells which are related by symmetry :  1


    mo occupation :
   irrep   mo's   occupied
    a      264        9
 
 number of basis functions   :                    264
 number of occupied orbitals :                      9
 
  
           ------------------
           density functional
           ------------------
 PBE functional
 exchange:    LDA + PBE
 correlation: LDA (PW) + PBE

 iterations will be done with small grid
  
 spherical integration : Lebedev's spherical grid
 spherical gridsize    :                     5
    i.e. gridpoints    :                   590
 value for diffuse not defined
 radial integration    : Chebyshev 2nd kind (scaling 3)
 radial gridsize       :                     8
 integration cells     :                     7
 partition function    : becke
 partition sharpness   :                     3
  

 biggest AO integral is expected to be     6.129561670
  
           ------------------------
               RI-J - INFORMATION
           ------------------------
 Contributions to RI integral batches: 
  neglected integral batches:                    60
  direct contribution:                            0
  memory contribution:                  3510
 Memory core needed for (P|Q) and Cholesky      1 MByte
 Memory core minimum needed except of (P|Q)     1 MByte
 Total minimum memory core needed (sum)         1 MByte
  
 ****************************************
 Memory allocated for RI-J    72 MByte
 ****************************************
                                            

          ------------------------
          nuclear repulsion energy  :   42.0520284500    
          ------------------------


         -----------------
         -S,T+V- integrals
         -----------------

 1e-integrals will be neglected if expon. factor < 0.104764E-13
 
   Difference densities algorithm switched on.
   The maximal number of linear combinations of
   difference densities is                    20 .

 DIIS switched on: error vector is FDS-SDF
 Max. Iterations for DIIS is     :   4
 DIIS matrix (see manual) 
    Scaling factor of diagonals  :  1.200
    threshold for scaling factor :  0.000

 scf convergence criterion : increment of total energy < .1000000D-08
                  and increment of one-electron energy < .1000000D-05

  MOs are in ASCII format !


 automatic virtual orbital shift switched on 
      shift if e(lumo)-e(homo) < 0.10000000    


 reading orbital data $scfmo  from file mos
 orbital characterization : expanded
 mo provided and orthogonalized by Cholesky decomposition

 DSCF restart information will be dumped onto file mos


 Starting SCF iterations

          Overall gridpoints after grid construction =         30672

 ITERATION  ENERGY          1e-ENERGY        2e-ENERGY     NORM[dD(SAO)]  TOL
   1  -95.384372816764    -210.08387812     72.647476849    0.000D+00 0.104D-12
                            Exc = -13.8175606200     Coul =  86.4650374693    
                              N = 18.000003528    
                            current damping = 0.700
 
          max. resid. norm for Fia-block=  5.683D-01 for orbital      3a         
          max. resid. fock norm         =  6.144D+01 for orbital    244a         

 ITERATION  ENERGY          1e-ENERGY        2e-ENERGY     NORM[dD(SAO)]  TOL
   2  -95.692379556679    -211.06024175     73.315833743    0.674D+00 0.762D-13
                            Exc = -13.9436968465     Coul =  87.2595305895    
                              N = 18.000001716    
                            current damping = 0.650
 
          Norm of current diis error:  1.7654    
          max. resid. norm for Fia-block=  1.250D-01 for orbital      1a         
          max. resid. fock norm         =  1.439D-01 for orbital    135a         

 ITERATION  ENERGY          1e-ENERGY        2e-ENERGY     NORM[dD(SAO)]  TOL
   3  -95.752091760657    -211.46979322     73.665673009    0.344D+00 0.566D-13
                            Exc = -14.0266797446     Coul =  87.6923527535    
                              N = 18.000000772    
                            current damping = 0.500
 
          Norm of current diis error: 0.81385    
          max. resid. norm for Fia-block=  5.061D-02 for orbital      1a         
          max. resid. fock norm         =  5.371D-02 for orbital      1a         

 ITERATION  ENERGY          1e-ENERGY        2e-ENERGY     NORM[dD(SAO)]  TOL
   4  -95.771276637395    -211.51232693     73.689021841    0.171D+00 0.445D-13
                            Exc = -14.0491958168     Coul =  87.7382176577    
                              N = 18.000001205    
                            current damping = 0.350
 
          Norm of current diis error: 0.29194    
          max. resid. norm for Fia-block=  1.875D-02 for orbital      3a         
          max. resid. fock norm         =  2.533D-02 for orbital    135a         

 ITERATION  ENERGY          1e-ENERGY        2e-ENERGY     NORM[dD(SAO)]  TOL
   5  -95.774161144279    -211.72558092     73.899391325    0.640D-01 0.390D-13
                            Exc = -14.0829847906     Coul =  87.9823761151    
                              N = 18.000001612    
                            current damping = 0.200
 
          Norm of current diis error: 0.12111    
          max. resid. norm for Fia-block=  9.349D-03 for orbital      9a         
          max. resid. fock norm         =  9.425D-03 for orbital      9a         
          mo-orthogonalization: Cholesky decomposition

 ITERATION  ENERGY          1e-ENERGY        2e-ENERGY     NORM[dD(SAO)]  TOL
   6  -95.774579785736    -211.57226812     73.745659888    0.255D-01 0.361D-13
                            Exc = -14.0682964134     Coul =  87.8139563009    
                              N = 18.000002070    
                            current damping = 0.250
 
          Norm of current diis error: 0.74470E-01
          max. resid. norm for Fia-block=  2.345D-03 for orbital      5a         
          max. resid. fock norm         =  3.174D-03 for orbital    244a         

 ITERATION  ENERGY          1e-ENERGY        2e-ENERGY     NORM[dD(SAO)]  TOL
   7  -95.774686383340    -211.65297714     73.826262311    0.405D-02 0.357D-13
                            Exc = -14.0774164091     Coul =  87.9036787203    
                              N = 18.000002058    
                            current damping = 0.300
 
          Norm of current diis error: 0.10943E-01
          max. resid. norm for Fia-block=  5.624D-04 for orbital      7a         
          max. resid. fock norm         =  8.013D-04 for orbital    169a         

 ITERATION  ENERGY          1e-ENERGY        2e-ENERGY     NORM[dD(SAO)]  TOL
   8  -95.774687929502    -211.64372322     73.817006839    0.138D-02 0.355D-13
                            Exc = -14.0767387312     Coul =  87.8937455698    
                              N = 18.000002060    
                            current damping = 0.350
 
          Norm of current diis error: 0.63543E-02
          max. resid. norm for Fia-block=  2.018D-04 for orbital      7a         
          max. resid. fock norm         =  2.346D-04 for orbital    172a         

 ITERATION  ENERGY          1e-ENERGY        2e-ENERGY     NORM[dD(SAO)]  TOL
   9  -95.774688731606    -211.64972860     73.823011419    0.267D-03 0.352D-13
                            Exc = -14.0773361113     Coul =  87.9003475302    
                              N = 18.000002065    
                            current damping = 0.400
 
          Norm of current diis error: 0.72123E-03
          max. resid. norm for Fia-block=  3.561D-05 for orbital      9a         
          max. resid. fock norm         =  4.097D-05 for orbital      9a         

 ITERATION  ENERGY          1e-ENERGY        2e-ENERGY     NORM[dD(SAO)]  TOL
  10  -95.774688742363    -211.64998408     73.823266890    0.541D-04 0.350D-13
                            Exc = -14.0773568834     Coul =  87.9006237736    
                              N = 18.000002066    
                            current damping = 0.250
 
          Norm of current diis error: 0.14327E-03
          max. resid. norm for Fia-block=  6.474D-06 for orbital      7a         
          max. resid. fock norm         =  8.088D-06 for orbital      7a         
          mo-orthogonalization: Cholesky decomposition

 ITERATION  ENERGY          1e-ENERGY        2e-ENERGY     NORM[dD(SAO)]  TOL
  11  -95.774688742857    -211.65015384     73.823436644    0.834D-05 0.347D-13
                            Exc = -14.0773744656     Coul =  87.9008111096    
                              N = 18.000002067    
                            current damping = 0.100
 
          Norm of current diis error: 0.25291E-04
          max. resid. norm for Fia-block=  1.754D-06 for orbital      9a         
          max. resid. fock norm         =  1.900D-06 for orbital      9a         

 ITERATION  ENERGY          1e-ENERGY        2e-ENERGY     NORM[dD(SAO)]  TOL
  12  -95.774688742876    -211.65012440     73.823407209    0.159D-05 0.345D-13
                            Exc = -14.0773716623     Coul =  87.9007788709    
                              N = 18.000002067    
                            current damping = 0.150
 
          Norm of current diis error: 0.79370E-05
          max. resid. norm for Fia-block=  4.014D-07 for orbital      6a         
          max. resid. fock norm         =  5.574D-07 for orbital    221a         

 ITERATION  ENERGY          1e-ENERGY        2e-ENERGY     NORM[dD(SAO)]  TOL
  13  -95.774688742875    -211.65013377     73.823416576    0.317D-06 0.343D-13
                            Exc = -14.0773726879     Coul =  87.9007892638    
                              N = 18.000002067    
                            current damping = 0.200
 
          Norm of current diis error: 0.54390E-05
          max. resid. norm for Fia-block=  1.660D-07 for orbital      9a         
          max. resid. fock norm         =  2.102D-07 for orbital    135a         

 ENERGY CONVERGED !

          Overall gridpoints after grid construction =        103798

 ITERATION  ENERGY          1e-ENERGY        2e-ENERGY     NORM[dD(SAO)]  TOL
  14  -95.774690185579    -211.65013090     73.823412268    0.344D-07 0.341D-13
                            Exc = -14.0773737925     Coul =  87.9007860601    
                              N = 17.999999835    
                            current damping = 0.250
 
          Norm of current diis error: 0.79095E-06
          max. resid. norm for Fia-block=  5.104D-08 for orbital      6a         
          max. resid. fock norm         =  6.182D-08 for orbital    129a         

 End of SCF iterations

   convergence criteria satisfied after    14 iterations


                  ------------------------------------------ 
                 |  total energy      =    -95.77469018558  |
                  ------------------------------------------ 
                 :  kinetic energy    =     95.38224447163  :
                 :  potential energy  =   -191.15693465721  :
                 :  virial theorem    =      1.99590240686  :
                 :  wavefunction norm =      1.00000000000  :
                  .......................................... 


 <geterg> : there is no data group $energy 


 <skperg> : $end is missing 


 orbitals $scfmo  will be written to file mos

    irrep                  5a          6a          7a          8a          9a   
 eigenvalues H         -0.43996    -0.39391    -0.35777    -0.32391    -0.19947
            eV         -11.9721    -10.7189     -9.7355     -8.8140     -5.4280
 occupation              2.0000      2.0000      2.0000      2.0000      2.0000 

    irrep                 10a         11a         12a         13a         14a   
 eigenvalues H         -0.00023     0.03422     0.05126     0.07358     0.08801
            eV          -0.0062      0.9312      1.3950      2.0023      2.3949
 
 
 
 
 ==============================================================================
                           electrostatic moments
 ==============================================================================

 reference point for electrostatic moments:    0.00000   0.00000   0.00000

 
              nuc           elec       ->  total
 ------------------------------------------------------------------------------
                          charge      
 ------------------------------------------------------------------------------
          18.000000     -18.000000       0.000000
 
 ------------------------------------------------------------------------------
                       dipole moment  
 ------------------------------------------------------------------------------
   x      84.974812     -84.455027       0.519784
   y     -25.105488      25.127381       0.021892
   z       0.531785      -0.532319      -0.000534
 
   | dipole moment | =     0.5202 a.u. =     1.3223 debye 
 
 ------------------------------------------------------------------------------
                     quadrupole moment
 ------------------------------------------------------------------------------
  xx     410.150358    -417.470293      -7.319936
  yy      79.870619     -89.885644     -10.015025
  zz      10.170061     -19.694838      -9.524778
  xy    -127.531415     128.056666       0.525251
  xz       2.753774      -2.772114      -0.018340
  yz      -1.679997       1.693043       0.013046
 
     1/3  trace=      -8.953246
     anisotropy=       2.647976
 
 ==============================================================================
 


    ------------------------------------------------------------------------
         total  cpu-time :  18.10 seconds
         total wall-time :  1 minutes and  3 seconds
    ------------------------------------------------------------------------

   ****  ridft : all done  ****


    2018-05-18 15:37:01.751 

