           Doing BLAS/Lapack in the master proc. with  8 CPUs.
           SMPCPUS    set: Shared-memory Parallelization with   8 CPUs.

           SMP Parallelization Reference:
           C. van Wullen, J. Comput. Chem. 32 (2011) 1195--1201
 operating system is UNIX !

 ridft (c-18-172.gp.local) : TURBOMOLE V7.2 ( 21454 ) 4 Oct 2017 at 12:48:15
 Copyright (C) 2017 TURBOMOLE GmbH, Karlsruhe


    2018-04-28 20:58:46.540 



                                  r i d f t

                        DFT program with RI approximation 
                                for coulomb part 




                                                 
                                 References:     
                                                 
          TURBOMOLE:                             
              R. Ahlrichs, M. Baer, M. Haeser, H. Horn, and
              C. Koelmel
              Electronic structure calculations on workstation
              computers: the program system TURBOMOLE
              Chem. Phys. Lett. 162: 165 (1989)
          Density Functional:                              
              O. Treutler and R. Ahlrichs                      
              Efficient Molecular Numerical Integration Schemes
              J. Chem. Phys. 102: 346 (1995)                   
          Parallel Version:                                
              Performance of parallel TURBOMOLE for Density    
              Functional Calculations                          
              M. v. Arnim and R. Ahlrichs                      
              J. Comp. Chem. 19: 1746 (1998)                   
          RI-J Method:                                     
              Auxiliary Basis Sets to approximate Coulomb      
              Potentials                                       
              Chem. Phys. Lett. 240: 283 (1995)                
              K. Eichkorn, O. Treutler, H. Oehm, M. Haeser     
              and R. Ahlrichs                                  
              Chem. Phys. Lett. 242: 652 (1995)                
                                                           
              Auxiliary Basis Sets for Main Row Atoms and their
              Use to approximate Coulomb Potentials            
              K. Eichkorn, F. Weigend, O. Treutler and         
              R. Ahlrichs                                      
              Theo. Chem. Acc. 97: 119 (1997)                   
                                                           
              Accurate Coulomb-fitting basis sets for H to Rn 
              F. Weigend                                        
              Phys. Chem. Chem. Phys. 8: 1057 (2006)            
                                                           
          Multipole accelerated RI-J (MARI-J):             
              Fast evaluation of the Coulomb potential for     
              electron densities using multipole accelerated   
              resolution of identity approximation             
              M. Sierka, A. Hogekamp and R. Ahlrichs           
              J. Chem. Phys. 118: 9136 (2003)                  
          RI-JK Method:                                     
              A fully direct RI-HF algorithm: Implementation,
              optimised auxiliary basis sets, demonstration of
              accuracy and efficiency                         
              F. Weigend                                      
              Phys. Chem. Chem. Phys. 4: 4285 (2002)           
          Two-component HF and DFT with spin-orbit coupling:  
              Self-consistent treatment of spin-orbit         
              interactions with efficient Hartree-Fock and    
              density functional methods                      
              M. K. Armbruster, F. Weigend, C. van Wüllen and 
              W. Klopper                                      
              Phys. Chem. Chem. Phys. 10: 1748 (2008)         
          Relativistic all-electron 2c calculations           
              An efficient implementation of two-component    
              relativistic exact-decoupling methods for large 
              molecules                                       
              D. Peng, N. Middendorf, F. Weigend, M. Reiher   
              J. Chem. Phys. 138, 184105 (2013)               
                                         




              +--------------------------------------------------+
              |      general information about current run       |
              +--------------------------------------------------+

 

 DENSITY CONVERGENCE CHECK SWITCHED ON !
 SCF CONVERGENCE IF RMS(delta[D]) <     0.1000000000E-06

 PBE functional
 exchange:    LDA + PBE
 correlation: LDA (PW) + PBE
 A DFT calculation using the RI-J approximation will be carried out.
 Allocatable memory for RI due to $ricore (MB):                  5000


              +--------------------------------------------------+
              | Atomic coordinate, charge and isotop information |
              +--------------------------------------------------+

                    atomic coordinates            atom    charge  isotop
         -1.90270330   -0.05776555   -0.04681391    c      6.000     0
          0.11150013   -0.11515941   -0.09328750    h      1.000     0
         -4.19281813    0.00599699    0.00491177    c      6.000     0
         -6.19693601    0.06335289    0.05140146    h      1.000     0
          4.27815969   -0.27508754   -0.21820822    o      0.000     0
          5.35597711   -1.38959015    0.72103655    h      0.000     0
          5.35907518    0.38818370   -1.51337389    h      0.000     0
 
       center of nuclear mass  :   -0.00226360   -0.13811914   -0.10976101
       center of nuclear charge:   -3.04704032   -0.02588699   -0.02094992

              +--------------------------------------------------+
              |               basis set information              |
              +--------------------------------------------------+

              we will work with the 1s 3p 5d 7f 9g ... basis set
              ...i.e. with spherical basis functions...

   type   atoms  prim   cont   basis
   ---------------------------------------------------------------------------
    c        2     77     55   cc-pVQZ   [5s4p3d2f1g|21s6p3d2f1g]
    h        4     32     30   cc-pVQZ   [4s3p2d1f|6s3p2d1f]
    o        1     77     55   cc-pVQZ   [5s4p3d2f1g|21s6p3d2f1g]
   ---------------------------------------------------------------------------
   total:    7    359    285
   ---------------------------------------------------------------------------

   total number of primitive shells          :   78
   total number of contracted shells         :   85
   total number of cartesian basis functions :  350
   total number of SCF-basis functions       :  285


 integral neglect threshold       :  0.95E-13
 integral storage threshold THIZE :  0.10E-04
 integral storage threshold THIME :         5

 RI-J AUXILIARY BASIS SET information:

              we will work with the 1s 3p 5d 7f 9g ... basis set
              ...i.e. with spherical basis functions...

   type   atoms  prim   cont   basis
   ---------------------------------------------------------------------------
    c        2     70     49   cc-pVQZ   [6s4p3d1f1g|12s5p4d2f1g]
    h        4     16     11   cc-pVQZ   [3s1p1d|5s2p1d]
    o        1     70     49   cc-pVQZ   [6s4p3d1f1g|12s5p4d2f1g]
   ---------------------------------------------------------------------------
   total:    7    274    191
   ---------------------------------------------------------------------------

   total number of primitive shells          :   56
   total number of contracted shells         :   65
   total number of cartesian basis functions :  231
   total number of SCF-basis functions       :  191


 symmetry group of the molecule :   c1 

 the group has the following generators :
   c1(z)

    1 symmetry operations found

 there are 1 real representations :   a   

 maximum number of shells which are related by symmetry :  1


    mo occupation :
   irrep   mo's   occupied
    a      285        7
 
 number of basis functions   :                    285
 number of occupied orbitals :                      7
 
  
           ------------------
           density functional
           ------------------
 Dummy atoms with grid-point found.
 DFT quadrature threshold dgrenze tightened by factor 1/10.

 PBE functional
 exchange:    LDA + PBE
 correlation: LDA (PW) + PBE
 Dummy atoms with grid-point found.
 DFT quadrature threshold dgrenze tightened by factor 1/10.

 Dummy atoms with grid-point found.
 DFT quadrature threshold dgrenze tightened by factor 1/10.


 iterations will be done with small grid
  
 spherical integration : Lebedev's spherical grid
 spherical gridsize    :                     5
    i.e. gridpoints    :                   590
 value for diffuse not defined
 radial integration    : Chebyshev 2nd kind (scaling 3)
 radial gridsize       :                     8
 integration cells     :                     7
 partition function    : becke
 partition sharpness   :                     3
  
 found dummy atom(s) with basis: included in dft

 biggest AO integral is expected to be     4.785886462
  
           ------------------------
               RI-J - INFORMATION
           ------------------------
 Contributions to RI integral batches: 
  neglected integral batches:                   688
  direct contribution:                            0
  memory contribution:                  2967
 Memory core needed for (P|Q) and Cholesky      1 MByte
 Memory core minimum needed except of (P|Q)     1 MByte
 Total minimum memory core needed (sum)         1 MByte
  
 ****************************************
 Memory allocated for RI-J    87 MByte
 ****************************************
                                            

          ------------------------
          nuclear repulsion energy  :   24.6260442584    
          ------------------------


         -----------------
         -S,T+V- integrals
         -----------------

 1e-integrals will be neglected if expon. factor < 0.954846E-14
 Difference densities >>NOT<< switched on in parallel ridft!

 DIIS switched on: error vector is FDS-SDF
 Max. Iterations for DIIS is     :   4
 DIIS matrix (see manual) 
    Scaling factor of diagonals  :  1.200
    threshold for scaling factor :  0.000

 scf convergence criterion : increment of total energy < .1000000D-08
                  and increment of one-electron energy < .1000000D-05

  MOs are in ASCII format !


 automatic virtual orbital shift switched on 
      shift if e(lumo)-e(homo) < 0.10000000    


 reading orbital data $scfmo  from file mos
 orbital characterization : expanded
 mo provided and orthogonalized by Cholesky decomposition

 DSCF restart information will be dumped onto file mos


 Starting SCF iterations

          Overall gridpoints after grid construction =         37901

 ITERATION  ENERGY          1e-ENERGY        2e-ENERGY     RMS[dD(SAO)]   TOL
   1  -76.938481951685    -148.43623761     46.871711403    0.000D+00 0.952D-13
                            Exc = -10.9671534273     Coul =  57.8388648298    
                              N = 13.999999097    
                            current damping = 0.700
 
          max. resid. norm for Fia-block=  3.157D-01 for orbital      5a         
          max. resid. fock norm         =  3.684D+01 for orbital    268a         

 ITERATION  ENERGY          1e-ENERGY        2e-ENERGY     RMS[dD(SAO)]   TOL
   2  -77.190460437185    -150.65834107     48.841836379    0.643D-02 0.952D-13
                            Exc = -11.2357011906     Coul =  60.0775375700    
                              N = 13.999999098    
                            current damping = 0.650
 
          Norm of current diis error:  1.5917    
          max. resid. norm for Fia-block=  1.385D-01 for orbital      2a         
          max. resid. fock norm         =  1.466D-01 for orbital     10a         

 ITERATION  ENERGY          1e-ENERGY        2e-ENERGY     RMS[dD(SAO)]   TOL
   3  -77.239310787523    -151.18769507     49.322340027    0.193D-02 0.952D-13
                            Exc = -11.3101628572     Coul =  60.6325028839    
                              N = 13.999999017    
                            current damping = 0.500
 
          Norm of current diis error: 0.73172    
          max. resid. norm for Fia-block=  5.598D-02 for orbital      2a         
          max. resid. fock norm         =  5.880D-02 for orbital      3a         

 ITERATION  ENERGY          1e-ENERGY        2e-ENERGY     RMS[dD(SAO)]   TOL
   4  -77.253568986435    -151.54460603     49.664992783    0.930D-03 0.952D-13
                            Exc = -11.3599545641     Coul =  61.0249473469    
                              N = 13.999999100    
                            current damping = 0.350
 
          Norm of current diis error: 0.25619    
          max. resid. norm for Fia-block=  1.925D-02 for orbital      2a         
          max. resid. fock norm         =  2.124D-02 for orbital      3a         

 ITERATION  ENERGY          1e-ENERGY        2e-ENERGY     RMS[dD(SAO)]   TOL
   5  -77.255776049245    -151.64898433     49.767164025    0.267D-03 0.952D-13
                            Exc = -11.3761039128     Coul =  61.1432679378    
                              N = 13.999999148    
                            current damping = 0.200
 
          Norm of current diis error: 0.71419E-01
          max. resid. norm for Fia-block=  5.295D-03 for orbital      3a         
          max. resid. fock norm         =  5.992D-03 for orbital      3a         
          mo-orthogonalization: Cholesky decomposition

 ITERATION  ENERGY          1e-ENERGY        2e-ENERGY     RMS[dD(SAO)]   TOL
   6  -77.255962825046    -151.69831372     49.816306635    0.820D-04 0.952D-13
                            Exc = -11.3829156211     Coul =  61.1992222557    
                              N = 13.999999179    
                            current damping = 0.050
 
          Norm of current diis error: 0.22447E-01
          max. resid. norm for Fia-block=  1.415D-03 for orbital      6a         
          max. resid. fock norm         =  2.597D-03 for orbital      2a         

 ITERATION  ENERGY          1e-ENERGY        2e-ENERGY     RMS[dD(SAO)]   TOL
   7  -77.255924110188    -151.69301419     49.811045826    0.345D-04 0.952D-13
                            Exc = -11.3826268230     Coul =  61.1936726488    
                              N = 13.999999177    
                            current damping = 0.100
 
          Norm of current diis error: 0.46886E-01
          max. resid. norm for Fia-block=  8.215D-04 for orbital      7a         
          max. resid. fock norm         =  1.513D-03 for orbital    281a         

 ITERATION  ENERGY          1e-ENERGY        2e-ENERGY     RMS[dD(SAO)]   TOL
   8  -77.255975218396    -151.69278524     49.810765759    0.173D-04 0.952D-13
                            Exc = -11.3825985861     Coul =  61.1933643446    
                              N = 13.999999177    
                            current damping = 0.050
 
          Norm of current diis error: 0.86925E-02
          max. resid. norm for Fia-block=  2.519D-04 for orbital      6a         
          max. resid. fock norm         =  3.823D-04 for orbital    194a         

 ITERATION  ENERGY          1e-ENERGY        2e-ENERGY     RMS[dD(SAO)]   TOL
   9  -77.255976996965    -151.69913210     49.817110847    0.565D-05 0.952D-13
                            Exc = -11.3832892030     Coul =  61.2004000499    
                              N = 13.999999181    
                            current damping = 0.100
 
          Norm of current diis error: 0.19404E-02
          max. resid. norm for Fia-block=  8.989D-05 for orbital      5a         
          max. resid. fock norm         =  1.278D-04 for orbital    194a         

 ITERATION  ENERGY          1e-ENERGY        2e-ENERGY     RMS[dD(SAO)]   TOL
  10  -77.255977083009    -151.69643916     49.814417822    0.157D-05 0.952D-13
                            Exc = -11.3829872232     Coul =  61.1974050451    
                              N = 13.999999179    
                            current damping = 0.150
 
          Norm of current diis error: 0.75530E-03
          max. resid. norm for Fia-block=  3.044D-05 for orbital      5a         
          max. resid. fock norm         =  4.223D-05 for orbital    194a         
          mo-orthogonalization: Cholesky decomposition

 ITERATION  ENERGY          1e-ENERGY        2e-ENERGY     RMS[dD(SAO)]   TOL
  11  -77.255977097647    -151.69729321     49.815271854    0.521D-06 0.952D-13
                            Exc = -11.3830842704     Coul =  61.1983561241    
                              N = 13.999999179    
                            current damping = 0.200
 
          Norm of current diis error: 0.19548E-03
          max. resid. norm for Fia-block=  5.252D-06 for orbital      7a         
          max. resid. fock norm         =  9.635D-06 for orbital      1a         

 DENSITY CONVERGED !


 ITERATION  ENERGY          1e-ENERGY        2e-ENERGY     RMS[dD(SAO)]   TOL
  12  -77.255977098569    -151.69722676     49.815205406    0.979D-07 0.952D-13
                            Exc = -11.3830767307     Coul =  61.1982821369    
                              N = 13.999999179    
                            current damping = 0.250
 
          Norm of current diis error: 0.22112E-04
          max. resid. norm for Fia-block=  5.874D-07 for orbital      7a         
          max. resid. fock norm         =  1.136D-06 for orbital      2a         

 ENERGY & DENSITY CONVERGED !

          Overall gridpoints after grid construction =        110848

 ITERATION  ENERGY          1e-ENERGY        2e-ENERGY     RMS[dD(SAO)]   TOL
  13  -77.255973173455    -151.69722421     49.815206778    0.109D-07 0.952D-13
                            Exc = -11.3830724184     Coul =  61.1982791962    
                              N = 14.000000035    
                            current damping = 0.300
 
          Norm of current diis error: 0.20699E-05
          max. resid. norm for Fia-block=  4.383D-08 for orbital      6a         
          max. resid. fock norm         =  7.014D-08 for orbital      2a         

 End of SCF iterations

   convergence criteria satisfied after    13 iterations


                  ------------------------------------------ 
                 |  total energy      =    -77.25597317345  |
                  ------------------------------------------ 
                 :  kinetic energy    =     76.87152672693  :
                 :  potential energy  =   -154.12749990038  :
                 :  virial theorem    =      1.99502373175  :
                 :  wavefunction norm =      1.00000000000  :
                  .......................................... 


 <geterg> : there is no data group $energy 


 <skperg> : $end is missing 


 orbitals $scfmo  will be written to file mos

    irrep                  3a          4a          5a          6a          7a   
 eigenvalues H         -0.68099    -0.51673    -0.44731    -0.26209    -0.26209
            eV         -18.5308    -14.0611    -12.1720     -7.1320     -7.1318
 occupation              2.0000      2.0000      2.0000      2.0000      2.0000 

    irrep                  8a          9a         10a         11a         12a   
 eigenvalues H         -0.01257    -0.01230     0.02427     0.04217     0.09663
            eV          -0.3421     -0.3347      0.6605      1.1476      2.6296
 
 
 
 
 ==============================================================================
                           electrostatic moments
 ==============================================================================

 reference point for electrostatic moments:    0.00000   0.00000   0.00000

 
              nuc           elec       ->  total
 ------------------------------------------------------------------------------
                          charge      
 ------------------------------------------------------------------------------
          14.000000     -14.000000       0.000000
 
 ------------------------------------------------------------------------------
                       dipole moment  
 ------------------------------------------------------------------------------
   x     -42.658564      42.659386       0.000822
   y      -0.362418       0.362457       0.000039
   z      -0.293299       0.293340       0.000041
 
   | dipole moment | =     0.0008 a.u. =     0.0021 debye 
 
 ------------------------------------------------------------------------------
                     quadrupole moment
 ------------------------------------------------------------------------------
  xx     165.614471    -170.911619      -5.297149
  yy       0.037512     -10.185503     -10.147990
  zz       0.024639     -10.174019     -10.149381
  xy       0.103164      -0.240947      -0.137782
  xz       0.081940      -0.193647      -0.111707
  yz       0.030401      -0.027128       0.003274
 
     1/3  trace=      -8.531507
     anisotropy=       4.861258
 
 ==============================================================================
 


    ------------------------------------------------------------------------
         total  cpu-time :  1 minutes and  9 seconds
         total wall-time :   6.53 seconds
    ------------------------------------------------------------------------

   ****  ridft : all done  ****


    2018-04-28 20:58:53.056 

