
   OpenMP run-time library returned nthreads = 28
 operating system is UNIX !

 dscf (c-15-34) : TURBOMOLE V7.3 ( 22142 ) 4 Jul 2018 at 18:12:42
 Copyright (C) 2018 TURBOMOLE GmbH, Karlsruhe


    2019-04-01 23:46:04.010 



                             d s c f - program

                   idea & directorship : reinhart ahlrichs
                   program development : marco haeser
                                         michael baer
                           dft version : oliver treutler


                          quantum chemistry group
                          universitaet  karlsruhe
                                  germany




                          References             
                                                 
          TURBOMOLE:                             
              R. Ahlrichs, M. Baer, M. Haeser, H. Horn, and
              C. Koelmel
              Electronic structure calculations on workstation
              computers: the program system TURBOMOLE
              Chem. Phys. Lett. 162: 165 (1989)
          Density Functional:                              
              O. Treutler and R. Ahlrichs                      
              Efficient Molecular Numerical Integration Schemes
              J. Chem. Phys. 102: 346 (1995)                   
          Parallel Version:                                
              Performance of parallel TURBOMOLE for Density    
              Functional Calculations                          
              M. v. Arnim and R. Ahlrichs                      
              J. Comp. Chem. 19: 1746 (1998)                   
                                         




              +--------------------------------------------------+
              | Atomic coordinate, charge and isotop information |
              +--------------------------------------------------+

                    atomic coordinates            atom    charge  isotop
          0.77248205    1.98614944    0.70966030    c      0.000     0
          1.91228710    3.68221773    0.69556639    h      0.000     0
          1.92594818   -0.37750988    0.54623182    c      0.000     0
          3.96005585   -0.51369054    0.41043148    h      0.000     0
          0.45678958   -2.56413670    0.56066275    c      0.000     0
          1.35156300   -4.39661546    0.43099395    h      0.000     0
         -2.16596575   -2.38910056    0.74436686    c      0.000     0
         -3.30547468   -4.08544926    0.75477513    h      0.000     0
         -3.32077379   -0.02638101    0.91264651    c      0.000     0
         -5.35456503    0.11006460    1.05643094    h      0.000     0
         -1.85133828    2.16223698    0.89248686    c      0.000     0
         -2.74775896    3.99488270    1.01503972    h      0.000     0
          0.46415789    3.69773596    8.04387518    c      6.000     0
         -0.21263826    4.01092187    6.12902935    h      1.000     0
          2.40034022    4.37181935    8.19777733    h      1.000     0
         -0.67741976    4.78175058    9.36357056    h      1.000     0
          0.39452841    0.95165565    8.82945101    c      6.000     0
          0.93239815    0.28578908   10.98097614    o      8.000     0
         -0.30919666   -0.68431190    6.97895353    n      7.000     0
         -0.61368427   -0.00780744    5.22893799    h      1.000     0
         -0.37872512   -3.38072287    7.39107835    c      6.000     0
         -0.23116099   -3.69613240    9.41307819    h      1.000     0
         -2.14607360   -4.17129089    6.69804375    h      1.000     0
          1.18809685   -4.33290440    6.45124681    h      1.000     0
 
       center of nuclear mass  :   -0.25395911   -0.03007042    4.45483514
       center of nuclear charge:    0.19705090    0.15161246    8.34421488

              +--------------------------------------------------+
              |               basis set information              |
              +--------------------------------------------------+

              we will work with the 1s 3p 5d 7f 9g ... basis set
              ...i.e. with spherical basis functions...

   type   atoms  prim   cont   basis
   ---------------------------------------------------------------------------
    c        9     77     55   cc-pVQZ   [5s4p3d2f1g|21s6p3d2f1g]
    h       13     32     30   cc-pVQZ   [4s3p2d1f|6s3p2d1f]
    o        1     77     55   cc-pVQZ   [5s4p3d2f1g|21s6p3d2f1g]
    n        1     77     55   cc-pVQZ   [5s4p3d2f1g|21s6p3d2f1g]
   ---------------------------------------------------------------------------
   total:   24   1263    995
   ---------------------------------------------------------------------------

   total number of primitive shells          :  111
   total number of contracted shells         :  295
   total number of cartesian basis functions : 1225
   total number of SCF-basis functions       :  995


 integral neglect threshold       :  0.27E-13
 integral storage threshold THIZE :  0.10E-04
 integral storage threshold THIME :         5


 DENSITY CONVERGENCE CHECK SWITCHED ON !
 SCF CONVERGENCE IF RMS(delta[D]) <     0.1000000000E-06


 symmetry group of the molecule :   c1 

 the group has the following generators :
   c1(z)

    1 symmetry operations found

 there are 1 real representations :   a   

 maximum number of shells which are related by symmetry :  1


    mo occupation :
   irrep   mo's   occupied
    a      995       20
 
 number of basis functions   :                    995
 number of occupied orbitals :                     20
 

 automatic virtual orbital shift switched on 
      shift if e(lumo)-e(homo) < 0.10000000    


          ------------------------
          nuclear repulsion energy  :   180.551809775    
          ------------------------


         -----------------
         -S,T+V- integrals
         -----------------

 1e-integrals will be neglected if expon. factor < 0.272813E-14
 
   Difference densities algorithm switched on.
   The maximal number of linear combinations of
   difference densities is                    20 .

 DIIS switched on: error vector is FDS-SDF
 Max. Iterations for DIIS is     :   5
 DIIS matrix (see manual) 
    Scaling factor of diagonals  :  1.200
    threshold for scaling factor :  0.000

 scf convergence criterion : increment of total energy < .1000000D-08
                  and increment of one-electron energy < .1000000D-05

  MOs are in ASCII format !


 reading orbital data $scfmo  from file mos
 orbital characterization : scfconv=9

 DSCF restart information will be dumped onto file mos

 
                                              current damping :  0.700
 ITERATION  ENERGY          1e-ENERGY        2e-ENERGY     RMS[dD(SAO)]   TOL
   1  -247.05851569194    -694.22629707     266.61597160    0.000D+00 0.272D-13
          max. resid. norm for Fia-block=  1.159D-01 for orbital      1a         
          max. resid. fock norm         =  3.554D-01 for orbital    943a         
          Delta Eig. =    29.7246080945 eV 
 
                                              current damping :  0.650
 ITERATION  ENERGY          1e-ENERGY        2e-ENERGY     RMS[dD(SAO)]   TOL
   2  -247.10503574251    -693.63930835     265.98246283    0.543D-03 0.177D-13
          Norm of current diis error: 0.60970    
          max. resid. norm for Fia-block=  5.179D-02 for orbital      1a         
          max. resid. fock norm         =  1.580D-01 for orbital    949a         
          Delta Eig. =    12.9841159933 eV 
 
                                              current damping :  0.600
 ITERATION  ENERGY          1e-ENERGY        2e-ENERGY     RMS[dD(SAO)]   TOL
   3  -247.11453475870    -693.72296274     266.05661820    0.256D-03 0.133D-13
          Norm of current diis error: 0.27251    
          max. resid. norm for Fia-block=  2.409D-02 for orbital      1a         
          max. resid. fock norm         =  4.991D-02 for orbital    852a         
          Delta Eig. =     5.5735060725 eV 
 
                                              current damping :  0.650
 ITERATION  ENERGY          1e-ENERGY        2e-ENERGY     RMS[dD(SAO)]   TOL
   4  -247.11674942926    -693.71701262     266.04845341    0.125D-03 0.117D-13
          Norm of current diis error: 0.11487    
          max. resid. norm for Fia-block=  8.174D-03 for orbital      2a         
          max. resid. fock norm         =  2.680D-02 for orbital    958a         
          Delta Eig. =     2.0250353812 eV 
 
                                              current damping :  0.500
 ITERATION  ENERGY          1e-ENERGY        2e-ENERGY     RMS[dD(SAO)]   TOL
   5  -247.11715735554    -693.70025332     266.03128619    0.457D-04 0.109D-13
          Norm of current diis error: 0.49993E-01
          max. resid. norm for Fia-block=  3.457D-03 for orbital     13a         
          max. resid. fock norm         =  8.470D-03 for orbital    947a         
 mo-orthogonalization: Cholesky decomposition
          Delta Eig. =     0.8159447543 eV 
 
                                              current damping :  0.350
 ITERATION  ENERGY          1e-ENERGY        2e-ENERGY     RMS[dD(SAO)]   TOL
   6  -247.11724953140    -693.69835548     266.02929617    0.233D-04 0.102D-13
          Norm of current diis error: 0.20055E-01
          max. resid. norm for Fia-block=  1.533D-03 for orbital     13a         
          max. resid. fock norm         =  3.155D-03 for orbital    899a         
          Delta Eig. =     0.3087333235 eV 
 
                                              current damping :  0.200
 ITERATION  ENERGY          1e-ENERGY        2e-ENERGY     RMS[dD(SAO)]   TOL
   7  -247.11726771418    -693.69729431     266.02821682    0.990D-05 0.956D-14
          Norm of current diis error: 0.72755E-02
          max. resid. norm for Fia-block=  6.163D-04 for orbital     13a         
          max. resid. fock norm         =  8.286D-04 for orbital    899a         
          Delta Eig. =     0.0867360278 eV 
 
                                              current damping :  0.050
 ITERATION  ENERGY          1e-ENERGY        2e-ENERGY     RMS[dD(SAO)]   TOL
   8  -247.11727076452    -693.69703988     266.02795934    0.390D-05 0.896D-14
          Norm of current diis error: 0.24024E-02
          max. resid. norm for Fia-block=  2.221D-04 for orbital     13a         
          max. resid. fock norm         =  2.255D-04 for orbital     13a         
          Delta Eig. =     0.0196073773 eV 
 
                                              current damping :  0.050
 ITERATION  ENERGY          1e-ENERGY        2e-ENERGY     RMS[dD(SAO)]   TOL
   9  -247.11727118868    -693.69698529     266.02790433    0.134D-05 0.843D-14
          Norm of current diis error: 0.74687E-03
          max. resid. norm for Fia-block=  6.984D-05 for orbital     19a         
          max. resid. fock norm         =  7.891D-05 for orbital     19a         
          Delta Eig. =     0.0042021732 eV 
 
                                              current damping :  0.100
 ITERATION  ENERGY          1e-ENERGY        2e-ENERGY     RMS[dD(SAO)]   TOL
  10  -247.11727122635    -693.69701623     266.02793523    0.399D-06 0.807D-14
          Norm of current diis error: 0.28916E-03
          max. resid. norm for Fia-block=  3.231D-05 for orbital     20a         
          max. resid. fock norm         =  4.114D-05 for orbital    917a         
 mo-orthogonalization: Cholesky decomposition
          Delta Eig. =     0.0023195904 eV 
 
                                              current damping :  0.150
 ITERATION  ENERGY          1e-ENERGY        2e-ENERGY     RMS[dD(SAO)]   TOL
  11  -247.11727123061    -693.69700126     266.02792025    0.115D-06 0.788D-14
          Norm of current diis error: 0.14661E-03
          max. resid. norm for Fia-block=  1.109D-05 for orbital     19a         
          max. resid. fock norm         =  1.622D-05 for orbital    917a         
          Delta Eig. =     0.0008292131 eV 

 DENSITY CONVERGED !

 
                                              current damping :  0.200
 ITERATION  ENERGY          1e-ENERGY        2e-ENERGY     RMS[dD(SAO)]   TOL
  12  -247.11727123156    -693.69700928     266.02792827    0.547D-07 0.776D-14
          Norm of current diis error: 0.39639E-04
          max. resid. norm for Fia-block=  5.257D-06 for orbital     20a         
          max. resid. fock norm         =  5.349D-06 for orbital     20a         
          Delta Eig. =     0.0000736552 eV 

 ENERGY & DENSITY CONVERGED !

 
                                              current damping :  0.250
 ITERATION  ENERGY          1e-ENERGY        2e-ENERGY     RMS[dD(SAO)]   TOL
  13  -247.11727123169    -693.69700733     266.02792632    0.225D-07 0.776D-14
          max. resid. norm for Fia-block=  1.386D-06 for orbital     20a         
          max. resid. fock norm         =  1.412D-06 for orbital     20a         

 convergence criteria satisfied after    13 iterations


                  ------------------------------------------ 
                 |  total energy      =   -247.11727123169  |
                  ------------------------------------------ 
                 :  kinetic energy    =    246.85640640735  :
                 :  potential energy  =   -493.97367763904  :
                 :  virial theorem    =      1.99894436830  :
                 :  wavefunction norm =      1.00000000000  :
                  .......................................... 


 orbitals $scfmo  will be written to file mos

    irrep                 16a         17a         18a         19a         20a   
 eigenvalues H         -0.55461    -0.54495    -0.50329    -0.41963    -0.39150
            eV         -15.0917    -14.8288    -13.6952    -11.4187    -10.6532
 occupation              2.0000      2.0000      2.0000      2.0000      2.0000 

    irrep                 21a         22a         23a         24a         25a   
 eigenvalues H          0.03975     0.07881     0.08161     0.12314     0.13139
            eV           1.0818      2.1447      2.2208      3.3508      3.5754
 
 
 
 
 ==============================================================================
                           electrostatic moments
 ==============================================================================

 reference point for electrostatic moments:    0.00000   0.00000   0.00000

 
              nuc           elec       ->  total
 ------------------------------------------------------------------------------
                          charge      
 ------------------------------------------------------------------------------
          40.000000     -40.000000       0.000000
 
 ------------------------------------------------------------------------------
                       dipole moment  
 ------------------------------------------------------------------------------
   x       7.882036      -8.257340      -0.375304
   y       6.064498      -5.904975       0.159523
   z     333.768595    -335.339375      -1.570780
 
   | dipole moment | =     1.6229 a.u. =     4.1249 debye 
 
 ------------------------------------------------------------------------------
                     quadrupole moment
 ------------------------------------------------------------------------------
  xx      23.424312     -46.930567     -23.506256
  yy     267.881125    -287.706255     -19.825130
  zz    2884.217494   -2935.632793     -51.415299
  xy      34.910688     -34.539052       0.371635
  xz      93.247991     -97.376836      -4.128845
  yz      85.104279     -83.859087       1.245191
 
     1/3  trace=     -31.582228
     anisotropy=      30.844935
 
 ==============================================================================
 


    ------------------------------------------------------------------------
         total  cpu-time :  7 hours 29 minutes and 31 seconds
         total wall-time : 19 minutes and 46 seconds
    ------------------------------------------------------------------------

   ****  dscf : all done  ****


    2019-04-02 00:05:50.299 

