           Doing BLAS/Lapack in the master proc. with  8 CPUs.
           SMPCPUS    set: Shared-memory Parallelization with   8 CPUs.

           SMP Parallelization Reference:
           C. van Wullen, J. Comput. Chem. 32 (2011) 1195--1201
 operating system is UNIX !

 ridft (c-18-314.gp.local) : TURBOMOLE V7.2 ( 21454 ) 4 Oct 2017 at 12:48:15
 Copyright (C) 2017 TURBOMOLE GmbH, Karlsruhe


    2018-04-28 21:09:16.385 



                                  r i d f t

                        DFT program with RI approximation 
                                for coulomb part 




                                                 
                                 References:     
                                                 
          TURBOMOLE:                             
              R. Ahlrichs, M. Baer, M. Haeser, H. Horn, and
              C. Koelmel
              Electronic structure calculations on workstation
              computers: the program system TURBOMOLE
              Chem. Phys. Lett. 162: 165 (1989)
          Density Functional:                              
              O. Treutler and R. Ahlrichs                      
              Efficient Molecular Numerical Integration Schemes
              J. Chem. Phys. 102: 346 (1995)                   
          Parallel Version:                                
              Performance of parallel TURBOMOLE for Density    
              Functional Calculations                          
              M. v. Arnim and R. Ahlrichs                      
              J. Comp. Chem. 19: 1746 (1998)                   
          RI-J Method:                                     
              Auxiliary Basis Sets to approximate Coulomb      
              Potentials                                       
              Chem. Phys. Lett. 240: 283 (1995)                
              K. Eichkorn, O. Treutler, H. Oehm, M. Haeser     
              and R. Ahlrichs                                  
              Chem. Phys. Lett. 242: 652 (1995)                
                                                           
              Auxiliary Basis Sets for Main Row Atoms and their
              Use to approximate Coulomb Potentials            
              K. Eichkorn, F. Weigend, O. Treutler and         
              R. Ahlrichs                                      
              Theo. Chem. Acc. 97: 119 (1997)                   
                                                           
              Accurate Coulomb-fitting basis sets for H to Rn 
              F. Weigend                                        
              Phys. Chem. Chem. Phys. 8: 1057 (2006)            
                                                           
          Multipole accelerated RI-J (MARI-J):             
              Fast evaluation of the Coulomb potential for     
              electron densities using multipole accelerated   
              resolution of identity approximation             
              M. Sierka, A. Hogekamp and R. Ahlrichs           
              J. Chem. Phys. 118: 9136 (2003)                  
          RI-JK Method:                                     
              A fully direct RI-HF algorithm: Implementation,
              optimised auxiliary basis sets, demonstration of
              accuracy and efficiency                         
              F. Weigend                                      
              Phys. Chem. Chem. Phys. 4: 4285 (2002)           
          Two-component HF and DFT with spin-orbit coupling:  
              Self-consistent treatment of spin-orbit         
              interactions with efficient Hartree-Fock and    
              density functional methods                      
              M. K. Armbruster, F. Weigend, C. van Wüllen and 
              W. Klopper                                      
              Phys. Chem. Chem. Phys. 10: 1748 (2008)         
          Relativistic all-electron 2c calculations           
              An efficient implementation of two-component    
              relativistic exact-decoupling methods for large 
              molecules                                       
              D. Peng, N. Middendorf, F. Weigend, M. Reiher   
              J. Chem. Phys. 138, 184105 (2013)               
                                         




              +--------------------------------------------------+
              |      general information about current run       |
              +--------------------------------------------------+

 

 DENSITY CONVERGENCE CHECK SWITCHED ON !
 SCF CONVERGENCE IF RMS(delta[D]) <     0.1000000000E-06

 TPSS meta-GGA functional
 exchange:    LDA + TPSS
 correlation: LDA (PW) + TPSS
 A DFT calculation using the RI-J approximation will be carried out.
 Allocatable memory for RI due to $ricore (MB):                  5000


              +--------------------------------------------------+
              | Atomic coordinate, charge and isotop information |
              +--------------------------------------------------+

                    atomic coordinates            atom    charge  isotop
          0.89164086   -0.01144831   10.47233114    c      6.000     0
          1.10973424   -0.01036325   12.46601833    h      1.000     0
          0.64206518   -0.01248716    8.19285409    c      6.000     0
          0.41879760   -0.01199125    6.18123028    h      1.000     0
 
       center of nuclear mass  :    0.76665272   -0.01190654    9.33189827
       center of nuclear charge:    0.76648343   -0.01185481    9.33131143

              +--------------------------------------------------+
              |               basis set information              |
              +--------------------------------------------------+

              we will work with the 1s 3p 5d 7f 9g ... basis set
              ...i.e. with spherical basis functions...

   type   atoms  prim   cont   basis
   ---------------------------------------------------------------------------
    c        2     77     55   cc-pVQZ   [5s4p3d2f1g|21s6p3d2f1g]
    h        2     32     30   cc-pVQZ   [4s3p2d1f|6s3p2d1f]
   ---------------------------------------------------------------------------
   total:    4    218    170
   ---------------------------------------------------------------------------

   total number of primitive shells          :   45
   total number of contracted shells         :   50
   total number of cartesian basis functions :  210
   total number of SCF-basis functions       :  170


 integral neglect threshold       :  0.16E-12
 integral storage threshold THIZE :  0.10E-04
 integral storage threshold THIME :         5

 RI-J AUXILIARY BASIS SET information:

              we will work with the 1s 3p 5d 7f 9g ... basis set
              ...i.e. with spherical basis functions...

   type   atoms  prim   cont   basis
   ---------------------------------------------------------------------------
    c        2     70     49   cc-pVQZ   [6s4p3d1f1g|12s5p4d2f1g]
    h        2     16     11   cc-pVQZ   [3s1p1d|5s2p1d]
   ---------------------------------------------------------------------------
   total:    4    172    120
   ---------------------------------------------------------------------------

   total number of primitive shells          :   32
   total number of contracted shells         :   40
   total number of cartesian basis functions :  146
   total number of SCF-basis functions       :  120


 symmetry group of the molecule :   c1 

 the group has the following generators :
   c1(z)

    1 symmetry operations found

 there are 1 real representations :   a   

 maximum number of shells which are related by symmetry :  1


    mo occupation :
   irrep   mo's   occupied
    a      170        7
 
 number of basis functions   :                    170
 number of occupied orbitals :                      7
 
  
           ------------------
           density functional
           ------------------
 TPSS meta-GGA functional
 exchange:    LDA + TPSS
 correlation: LDA (PW) + TPSS

 iterations will be done with small grid
  
 spherical integration : Lebedev's spherical grid
 spherical gridsize    :                     5
    i.e. gridpoints    :                   590
 value for diffuse not defined
 radial integration    : Chebyshev 2nd kind (scaling 3)
 radial gridsize       :                     8
 integration cells     :                     4
 partition function    : becke
 partition sharpness   :                     3
  

 biggest AO integral is expected to be     3.537514283
  
           ------------------------
               RI-J - INFORMATION
           ------------------------
 Contributions to RI integral batches: 
  neglected integral batches:                    23
  direct contribution:                            0
  memory contribution:                  1252
 Memory core needed for (P|Q) and Cholesky      1 MByte
 Memory core minimum needed except of (P|Q)     1 MByte
 Total minimum memory core needed (sum)         1 MByte
  
 ****************************************
 Memory allocated for RI-J    25 MByte
 ****************************************
                                            

          ------------------------
          nuclear repulsion energy  :   24.5991589892    
          ------------------------


         -----------------
         -S,T+V- integrals
         -----------------

 1e-integrals will be neglected if expon. factor < 0.159141E-13
 Difference densities >>NOT<< switched on in parallel ridft!

 DIIS switched on: error vector is FDS-SDF
 Max. Iterations for DIIS is     :   4
 DIIS matrix (see manual) 
    Scaling factor of diagonals  :  1.200
    threshold for scaling factor :  0.000

 scf convergence criterion : increment of total energy < .1000000D-08
                  and increment of one-electron energy < .1000000D-05

  MOs are in ASCII format !


 automatic virtual orbital shift switched on 
      shift if e(lumo)-e(homo) < 0.10000000    


 reading orbital data $scfmo  from file mos
 orbital characterization : expanded
 mo provided and orthogonalized by Cholesky decomposition

 DSCF restart information will be dumped onto file mos


 Starting SCF iterations

          Overall gridpoints after grid construction =         19974

 ITERATION  ENERGY          1e-ENERGY        2e-ENERGY     RMS[dD(SAO)]   TOL
   1  -77.061507262477    -148.39306039     46.732394137    0.000D+00 0.159D-12
                            Exc = -11.0876269468     Coul =  57.8200210834    
                              N = 13.999998303    
                            current damping = 0.700
 
          max. resid. norm for Fia-block=  3.081D-01 for orbital      5a         
          max. resid. fock norm         =  7.677D+00 for orbital    161a         

 ITERATION  ENERGY          1e-ENERGY        2e-ENERGY     RMS[dD(SAO)]   TOL
   2  -77.309376007669    -150.57333192     48.664796923    0.902D-02 0.159D-12
                            Exc = -11.3546504545     Coul =  60.0194473777    
                              N = 13.999998380    
                            current damping = 0.650
 
          Norm of current diis error:  1.6064    
          max. resid. norm for Fia-block=  1.375D-01 for orbital      2a         
          max. resid. fock norm         =  1.856D-01 for orbital    162a         

 ITERATION  ENERGY          1e-ENERGY        2e-ENERGY     RMS[dD(SAO)]   TOL
   3  -77.360101126902    -151.13066630     49.171406188    0.286D-02 0.159D-12
                            Exc = -11.4362751402     Coul =  60.6076813285    
                              N = 13.999998435    
                            current damping = 0.550
 
          Norm of current diis error: 0.73763    
          max. resid. norm for Fia-block=  5.643D-02 for orbital      2a         
          max. resid. fock norm         =  5.888D-02 for orbital      3a         

 ITERATION  ENERGY          1e-ENERGY        2e-ENERGY     RMS[dD(SAO)]   TOL
   4  -77.374764861723    -151.47580776     49.501883908    0.126D-02 0.159D-12
                            Exc = -11.4869455367     Coul =  60.9888294447    
                              N = 13.999998694    
                            current damping = 0.400
 
          Norm of current diis error: 0.27768    
          max. resid. norm for Fia-block=  2.075D-02 for orbital      2a         
          max. resid. fock norm         =  2.269D-02 for orbital      3a         

 ITERATION  ENERGY          1e-ENERGY        2e-ENERGY     RMS[dD(SAO)]   TOL
   5  -77.377398591727    -151.59886505     49.622307471    0.428D-03 0.159D-12
                            Exc = -11.5064279727     Coul =  61.1287354436    
                              N = 13.999998860    
                            current damping = 0.250
 
          Norm of current diis error: 0.83832E-01
          max. resid. norm for Fia-block=  6.303D-03 for orbital      3a         
          max. resid. fock norm         =  8.954D-03 for orbital    167a         
          mo-orthogonalization: Cholesky decomposition

 ITERATION  ENERGY          1e-ENERGY        2e-ENERGY     RMS[dD(SAO)]   TOL
   6  -77.377665606008    -151.64590408     49.669079488    0.182D-03 0.159D-12
                            Exc = -11.5135337271     Coul =  61.1826132147    
                              N = 13.999998928    
                            current damping = 0.100
 
          Norm of current diis error: 0.26232E-01
          max. resid. norm for Fia-block=  1.660D-03 for orbital      3a         
          max. resid. fock norm         =  3.206D-03 for orbital      2a         

 ITERATION  ENERGY          1e-ENERGY        2e-ENERGY     RMS[dD(SAO)]   TOL
   7  -77.377631355568    -151.64995478     49.673164433    0.753D-04 0.159D-12
                            Exc = -11.5144489083     Coul =  61.1876133416    
                              N = 13.999998940    
                            current damping = 0.150
 
          Norm of current diis error: 0.47785E-01
          max. resid. norm for Fia-block=  8.668D-04 for orbital      6a         
          max. resid. fock norm         =  1.612D-03 for orbital    169a         

 ITERATION  ENERGY          1e-ENERGY        2e-ENERGY     RMS[dD(SAO)]   TOL
   8  -77.377684975493    -151.65039726     49.673553300    0.296D-04 0.159D-12
                            Exc = -11.5145207720     Coul =  61.1880740718    
                              N = 13.999998941    
                            current damping = 0.050
 
          Norm of current diis error: 0.10646E-01
          max. resid. norm for Fia-block=  2.949D-04 for orbital      6a         
          max. resid. fock norm         =  5.512D-04 for orbital    169a         

 ITERATION  ENERGY          1e-ENERGY        2e-ENERGY     RMS[dD(SAO)]   TOL
   9  -77.377687561379    -151.65315013     49.676303582    0.109D-04 0.159D-12
                            Exc = -11.5148197612     Coul =  61.1911233428    
                              N = 13.999998943    
                            current damping = 0.050
 
          Norm of current diis error: 0.29777E-02
          max. resid. norm for Fia-block=  8.061D-05 for orbital      7a         
          max. resid. fock norm         =  1.377D-04 for orbital      2a         

 ITERATION  ENERGY          1e-ENERGY        2e-ENERGY     RMS[dD(SAO)]   TOL
  10  -77.377687774901    -151.65169619     49.674849422    0.285D-05 0.159D-12
                            Exc = -11.5146546562     Coul =  61.1895040784    
                              N = 13.999998942    
                            current damping = 0.100
 
          Norm of current diis error: 0.52990E-03
          max. resid. norm for Fia-block=  2.899D-05 for orbital      5a         
          max. resid. fock norm         =  4.458D-05 for orbital    150a         
          mo-orthogonalization: Cholesky decomposition

 ITERATION  ENERGY          1e-ENERGY        2e-ENERGY     RMS[dD(SAO)]   TOL
  11  -77.377687780506    -151.65256063     49.675713860    0.709D-06 0.159D-12
                            Exc = -11.5147533779     Coul =  61.1904672379    
                              N = 13.999998943    
                            current damping = 0.150
 
          Norm of current diis error: 0.27700E-03
          max. resid. norm for Fia-block=  1.182D-05 for orbital      5a         
          max. resid. fock norm         =  1.767D-05 for orbital    128a         

 ITERATION  ENERGY          1e-ENERGY        2e-ENERGY     RMS[dD(SAO)]   TOL
  12  -77.377687782636    -151.65223524     49.675388463    0.294D-06 0.159D-12
                            Exc = -11.5147166888     Coul =  61.1901051522    
                              N = 13.999998943    
                            current damping = 0.200
 
          Norm of current diis error: 0.48984E-04
          max. resid. norm for Fia-block=  1.345D-06 for orbital      6a         
          max. resid. fock norm         =  2.543D-06 for orbital      2a         

 ENERGY & DENSITY CONVERGED !

          Overall gridpoints after grid construction =         65025

 ITERATION  ENERGY          1e-ENERGY        2e-ENERGY     RMS[dD(SAO)]   TOL
  13  -77.377658447050    -151.65223876     49.675421320    0.427D-07 0.159D-12
                            Exc = -11.5146875927     Coul =  61.1901089125    
                              N = 14.000000057    
                            current damping = 0.250
 
          Norm of current diis error: 0.60417E-05
          max. resid. norm for Fia-block=  1.162D-07 for orbital      6a         
          max. resid. fock norm         =  2.209D-07 for orbital      2a         

 End of SCF iterations

   convergence criteria satisfied after    13 iterations


                  ------------------------------------------ 
                 |  total energy      =    -77.37765844705  |
                  ------------------------------------------ 
                 :  kinetic energy    =     76.96786705174  :
                 :  potential energy  =   -154.34552549879  :
                 :  virial theorem    =      1.99470400884  :
                 :  wavefunction norm =      1.00000000000  :
                  .......................................... 


 <geterg> : there is no data group $energy 


 <skperg> : $end is missing 


 orbitals $scfmo  will be written to file mos

    irrep                  3a          4a          5a          6a          7a   
 eigenvalues H         -0.69683    -0.52953    -0.45539    -0.26223    -0.26223
            eV         -18.9618    -14.4093    -12.3918     -7.1358     -7.1357
 occupation              2.0000      2.0000      2.0000      2.0000      2.0000 

    irrep                  8a          9a         10a         11a         12a   
 eigenvalues H         -0.00363    -0.00363     0.03836     0.05395     0.11582
            eV          -0.0988     -0.0988      1.0438      1.4681      3.1517
 
 
 
 
 ==============================================================================
                           electrostatic moments
 ==============================================================================

 reference point for electrostatic moments:    0.00000   0.00000   0.00000

 
              nuc           elec       ->  total
 ------------------------------------------------------------------------------
                          charge      
 ------------------------------------------------------------------------------
          14.000000     -14.000000       0.000000
 
 ------------------------------------------------------------------------------
                       dipole moment  
 ------------------------------------------------------------------------------
   x      10.730768     -10.731841      -0.001073
   y      -0.165967       0.166306       0.000339
   z     130.638360    -130.641878      -0.003518
 
   | dipole moment | =     0.0037 a.u. =     0.0094 debye 
 
 ------------------------------------------------------------------------------
                     quadrupole moment
 ------------------------------------------------------------------------------
  xx       8.650528     -18.703657     -10.053129
  yy       0.001973     -10.112104     -10.110131
  zz    1254.364687   -1259.691317      -5.326630
  xy      -0.125875       0.126277       0.000402
  xz     104.010080    -103.489528       0.520552
  yz      -1.536485       1.540878       0.004392
 
     1/3  trace=      -8.496630
     anisotropy=       4.839984
 
 ==============================================================================
 


    ------------------------------------------------------------------------
         total  cpu-time :  46.63 seconds
         total wall-time :   3.77 seconds
    ------------------------------------------------------------------------

   ****  ridft : all done  ****


    2018-04-28 21:09:20.147 

