
   OpenMP run-time library returned nthreads =  8

 ricc2 (c-15-41.local) : TURBOMOLE V7.2 ( 21471 ) 11 Oct 2017 at 17:04:51
 Copyright (C) 2017 TURBOMOLE GmbH, Karlsruhe


    2018-04-03 20:37:10.329 



                              R I C C 2 - PROGRAM

                          the quantum chemistry groups
                             at the universities in
                           Karlsruhe, Bochum & Mainz
                                   Germany



   *-----------------------------------------------------------------------*
   |                     program will use  8 thread(s)                     |
   *-----------------------------------------------------------------------*


              +--------------------------------------------------+
              | Atomic coordinate, charge and isotop information |
              +--------------------------------------------------+

                    atomic coordinates            atom    charge  isotop
         -0.91146234    1.48014379    6.17950112    c      6.000     0
          1.20108279    2.43962857    7.46188924    c      6.000     0
          2.37267150    4.68247105    6.75800446    c      6.000     0
          1.37088314    6.01960202    4.73404013    c      6.000     0
         -0.77407086    5.21409544    3.40388024    c      6.000     0
         -1.81240519    2.89055240    4.13269059    c      6.000     0
          2.55798739    8.29870296    3.98605803    o      8.000     0
          4.73319623    7.99617661    2.61822547    c      6.000     0
          6.85567924    7.41352103    3.82898847    n      7.000     0
          8.86501616    7.15678637    2.32861569    c      6.000     0
          8.76412682    7.45544436   -0.27591995    c      6.000     0
          6.65687212    8.05084576   -1.51953967    n      7.000     0
          4.63804444    8.32291983   -0.04927796    c      6.000     0
         11.31330154    6.86498199   -1.35388441    c      6.000     0
         12.81912123    6.27969378    0.75298625    n      7.000     0
         11.48120708    6.35435498    3.04818335    c      6.000     0
         15.39847857    5.28403687    0.52727414    c      6.000     0
         15.39203993    2.46588660    0.03008809    c      6.000     0
         15.02246662    0.76576796    2.02198644    c      6.000     0
         14.93292447   -1.82019145    1.56575125    c      6.000     0
         15.20753142   -2.75793008   -0.89377263    c      6.000     0
         15.56941863   -1.06141372   -2.88366573    c      6.000     0
         15.66225838    1.53162338   -2.42374155    c      6.000     0
         12.35414801    5.83381087    5.10652506    o      8.000     0
         12.03208728    6.84413024   -3.53396498    o      8.000     0
          2.38616550    8.96360537   -1.12895656    o      8.000     0
          1.12001917    7.02419010   -2.46453181    c      6.000     0
          1.93744206    6.39298547   -4.87382818    c      6.000     0
          0.61756193    4.52885825   -6.16958294    c      6.000     0
         -1.47139258    3.27273651   -5.12708979    c      6.000     0
         -2.21500005    4.00197762   -2.69656872    c      6.000     0
         -0.98426379    5.89760365   -1.32031489    c      6.000     0
          2.13431885    1.09097529    9.55165657    o      8.000     0
          4.39041146   -0.16362207    9.19722719    c      6.000     0
          6.50316765    1.08851069    9.33267703    n      7.000     0
          8.69576951   -0.25013139    9.01488861    c      6.000     0
          8.62315943   -2.90849413    8.52616054    c      6.000     0
          6.36171059   -4.15973836    8.38777627    n      7.000     0
          4.31811999   -2.83307746    8.72637379    c      6.000     0
         10.90201827   -4.24921710    8.17242215    c      6.000     0
         13.17334249   -2.97833340    8.33083598    c      6.000     0
         13.24461419   -0.35093936    8.81229616    c      6.000     0
         11.04410795    1.00933326    9.13754321    c      6.000     0
          1.99679730   -4.01261082    8.68340610    o      8.000     0
          0.99757204   -4.59177835    6.28987108    c      6.000     0
          2.06760050   -6.53799815    4.88777472    c      6.000     0
          1.00051052   -7.11156087    2.56140819    c      6.000     0
         -1.10400616   -5.83449891    1.58662610    c      6.000     0
         -2.03906904   -3.82525131    3.03710628    c      6.000     0
         -1.07571222   -3.18558366    5.41858849    c      6.000     0
          2.07355211   -9.07865516    1.09527602    o      8.000     0
          4.25574184   -8.44858994   -0.13194244    c      6.000     0
          6.38090362   -8.29099100    1.18852039    n      7.000     0
          8.38914827   -7.60398131   -0.17383906    c      6.000     0
          8.28900023   -7.12409643   -2.75044141    c      6.000     0
          6.17741735   -7.32594321   -4.11704101    n      7.000     0
          4.15567868   -7.98453277   -2.78519540    c      6.000     0
         11.03297287   -7.16558451    0.73255837    c      6.000     0
         12.37365770   -6.41373501   -1.43840681    n      7.000     0
         10.86491625   -6.34387404   -3.62955360    c      6.000     0
         15.01705326   -5.56993716   -1.38703662    c      6.000     0
         -2.04520847   -1.01875118    7.05188455    c      6.000     0
         -4.91574557   -0.95883115    7.66569912    c      6.000     0
         -6.89216243   -0.85474999    5.55606117    c      6.000     0
         -9.62110878   -0.75973499    6.54923206    c      6.000     0
         -2.18705042   -6.66594634   -0.95086442    c      6.000     0
         -5.07962624   -7.20552096   -1.04631330    c      6.000     0
         -6.95157735   -5.25521946   -0.00412982    c      6.000     0
         -9.69027663   -5.68567349   -0.85825963    c      6.000     0
         11.60846035   -5.75962910   -5.71995342    o      8.000     0
          1.89286685   -8.23676178   -3.99812433    o      8.000     0
          0.70472795   -5.93356496   -4.67387733    c      6.000     0
          1.52246167   -4.66007789   -6.81380105    c      6.000     0
          0.33584061   -2.39953144   -7.44173379    c      6.000     0
         -1.60174846   -1.36099322   -5.96290586    c      6.000     0
         -2.31011092   -2.71602206   -3.80491424    c      6.000     0
         -1.26488760   -5.04908877   -3.14692909    c      6.000     0
         11.93334632   -7.37218600    2.83379554    o      8.000     0
          1.10756782   -1.11797551   -9.64232575    o      8.000     0
          3.46063186   -0.00504987   -9.49659888    c      6.000     0
          5.47963455   -1.36334015   -9.85502623    n      7.000     0
          7.76454372   -0.16168580   -9.63185769    c      6.000     0
          7.88313889    2.47073045   -9.02163145    c      6.000     0
          5.71315184    3.84270958   -8.69070897    n      7.000     0
          3.58242531    2.63966205   -8.92949245    c      6.000     0
         10.25430948    3.65277388   -8.71457689    c      6.000     0
         12.43200024    2.25194286   -9.02368459    c      6.000     0
         12.31641085   -0.34637330   -9.62937014    c      6.000     0
         10.02246410   -1.54904324   -9.92690022    c      6.000     0
         -2.73622499    1.19194645   -6.66970842    c      6.000     0
         -5.66789677    1.33036556   -6.84556257    c      6.000     0
         -7.34529617    0.29666992   -4.72012233    c      6.000     0
        -10.17330238    0.78200130   -5.16687296    c      6.000     0
          1.33399898    3.91579241   -8.64868885    o      8.000     0
         -1.81852146    6.84045271    1.26954988    c      6.000     0
         -4.66774890    7.55063061    1.43258465    c      6.000     0
         -6.67649961    5.52333668    1.92479899    c      6.000     0
         -9.39100941    6.51976568    1.64969513    c      6.000     0
          4.03413118    5.35223575    7.74738379    h      1.000     0
         11.05794958    3.03365959    9.45500594    h      1.000     0
         15.05557639    0.60975569    8.91244040    h      1.000     0
         14.93086034   -4.00545579    8.06839406    h      1.000     0
         10.80757946   -6.25225300    7.75324175    h      1.000     0
          3.70407611   -7.55211901    5.58005643    h      1.000     0
         -3.55553956   -2.69428836    2.26621586    h      1.000     0
          3.05443356   -5.38750430   -7.95864853    h      1.000     0
         -3.70818854   -1.89692967   -2.56134579    h      1.000     0
          9.89625391   -3.55348398  -10.32946555    h      1.000     0
         14.05424091   -1.41749205   -9.83776467    h      1.000     0
         14.25857481    3.15527404   -8.78110916    h      1.000     0
         10.30591036    5.63350455   -8.19312361    h      1.000     0
         -3.81292635    3.05519482   -1.83952492    h      1.000     0
          3.55412808    7.31568181   -5.72251364    h      1.000     0
         16.30581670    6.30475457   -1.01996737    h      1.000     0
         16.35057385    5.72524158    2.30502162    h      1.000     0
         14.77655806    1.47850014    3.93037289    h      1.000     0
         14.62445215   -3.12516469    3.11875137    h      1.000     0
         15.74396353   -1.77239756   -4.80142314    h      1.000     0
         15.90968797    2.84456776   -3.98149549    h      1.000     0
         15.83453116   -6.05756932   -3.21799040    h      1.000     0
         15.94876582   -6.65284097    0.10373184    h      1.000     0
         -3.37020430    2.13940540    3.04315176    h      1.000     0
         -1.17723469   -1.34480321    8.89118254    h      1.000     0
         -1.32907066   -8.50712942   -1.29391829    h      1.000     0
         -2.10190945    1.53424465   -8.60038999    h      1.000     0
         -0.85060096    8.64717536    1.47841224    h      1.000     0
         -5.17772409    0.66010251    8.93255968    h      1.000     0
         -5.30195129   -2.65170348    8.80368474    h      1.000     0
         -5.09777521    8.53527202   -0.33789662    h      1.000     0
         -4.84540370    8.96450157    2.94051282    h      1.000     0
         -6.14072829    3.32763429   -7.15333772    h      1.000     0
         -6.18220014    0.33915981   -8.59060222    h      1.000     0
         -5.52316935   -7.56766434   -3.04108015    h      1.000     0
         -5.38712642   -8.99517362   -0.04928588    h      1.000     0
         -6.58883518    0.78553425    4.33191851    h      1.000     0
         -6.71065982   -2.53251221    4.37050911    h      1.000     0
         -6.40826944   -3.33933152   -0.56328751    h      1.000     0
         -6.89345457   -5.30733108    2.06408431    h      1.000     0
         -6.82236103    1.13173993   -2.89610266    h      1.000     0
         -7.06786461   -1.74545389   -4.54550799    h      1.000     0
         -6.45352851    3.90960322    0.64016696    h      1.000     0
         -6.43517913    4.79332705    3.84511414    h      1.000     0
        -10.29387367    1.67248715    7.97584496    c      6.000     0
         -9.95954519   -2.39325743    7.78840658    h      1.000     0
        -10.89788513   -0.98315747    4.93108627    h      1.000     0
         -9.77412798   -5.68612425   -2.93404514    h      1.000     0
        -10.81948545   -4.06536825   -0.22913358    h      1.000     0
        -10.87821675   -8.12866033    0.14848149    c      6.000     0
        -10.48922098    2.80444396   -5.51579284    h      1.000     0
        -11.18721222    0.32234883   -3.41902946    h      1.000     0
        -11.30171379   -0.74778115   -7.35474744    c      6.000     0
        -10.10673095    7.26293207   -1.05934794    c      6.000     0
         -9.66120974    8.15141944    2.90721966    h      1.000     0
        -10.68440952    5.04566617    2.31925694    h      1.000     0
        -13.08723915    1.82784962    8.75747140    c      6.000     0
         -9.11633303    1.82715785    9.67405804    h      1.000     0
         -9.82804458    3.31236565    6.78850822    h      1.000     0
        -12.90498251    7.97377339   -1.38031749    c      6.000     0
         -8.93904791    8.86103099   -1.67322939    h      1.000     0
         -9.65511886    5.68639179   -2.33312989    h      1.000     0
        -14.17716225   -0.43697851   -7.62465641    c      6.000     0
        -10.39619578   -0.18839993   -9.13308872    h      1.000     0
        -10.85739041   -2.75897069   -7.07535658    h      1.000     0
        -13.69464267   -8.40258414   -0.50752697    c      6.000     0
         -9.84692883   -9.76181266   -0.60439641    h      1.000     0
        -10.65174356   -8.19010888    2.21425417    h      1.000     0
        -14.32302802  -10.30579651    0.02340191    h      1.000     0
        -15.39294554   -6.45117298    0.79863782    c      6.000     0
        -13.93123730   -8.26342406   -2.56583618    h      1.000     0
        -13.33596676    3.44341618   10.03327504    h      1.000     0
        -14.91279808    2.10570412    6.52488270    c      6.000     0
        -13.58131956    0.13597290    9.85458433    h      1.000     0
        -13.17154624    8.79316156   -3.26648494    h      1.000     0
        -14.72731429    5.74340561   -1.06148599    c      6.000     0
        -13.38764143    9.46858252   -0.02270647    h      1.000     0
        -14.78296549   -1.33632573   -9.39189418    h      1.000     0
        -15.68693042   -1.57108516   -5.42700496    c      6.000     0
        -14.62954498    1.58084245   -7.81237229    h      1.000     0
        -16.87063137    2.25670706    7.17774242    h      1.000     0
        -14.47797515    3.81247587    5.43363745    h      1.000     0
        -14.80894265    0.48849547    5.23712354    h      1.000     0
        -16.68809687    6.34063483   -1.34640284    h      1.000     0
        -14.31229795    4.25416804   -2.43891242    h      1.000     0
        -14.60045856    4.90752638    0.82676259    h      1.000     0
        -17.72231241   -1.37147232   -5.74222415    h      1.000     0
        -15.27221132   -3.58986274   -5.21490268    h      1.000     0
        -15.24478868   -0.64588273   -3.62955219    h      1.000     0
        -17.38468037   -6.77496623    0.34016103    h      1.000     0
        -15.18854069   -6.56121307    2.85815773    h      1.000     0
        -14.93089985   -4.51906526    0.22044997    h      1.000     0
 
       center of nuclear mass  :    2.04052521   -0.03363563   -0.04474004
       center of nuclear charge:    1.71952368   -0.03126294   -0.03761957

              +--------------------------------------------------+
              |               basis set information              |
              +--------------------------------------------------+

              we will work with the 1s 3p 5d 7f 9g ... basis set
              ...i.e. with spherical basis functions...

   type   atoms  prim   cont   basis
   ---------------------------------------------------------------------------
    c       88     50     30   cc-pVTZ   [4s3p2d1f|18s5p2d1f]
    o       12     50     30   cc-pVTZ   [4s3p2d1f|18s5p2d1f]
    n       10     50     30   cc-pVTZ   [4s3p2d1f|18s5p2d1f]
    h       80     16     14   cc-pVTZ   [3s2p1d|5s2p1d]
   ---------------------------------------------------------------------------
   total:  190   6780   4420
   ---------------------------------------------------------------------------

   total number of primitive shells          :   86
   total number of contracted shells         : 1580
   total number of cartesian basis functions : 5050
   total number of SCF-basis functions       : 4420


 symmetry group of the molecule :   c1 

 the group has the following generators :
   c1(z)

    1 symmetry operations found

 there are 1 real representations :   a   


   =========================================================================


     restricted closed shell calculation for the wavefunction models:
               MP2        - Second Order Moeller Plesset PT


     global parameters for ricc2 program:

        hard restart (reuse of interm.) :  disabled
        soft restart (reuse of vectors) :  disabled
        threshold for vector function   :    0.100000E-05
        convergence threshold energy    :    0.100000E-06
        linear dependence threshold     :    0.100000E-13
        global print level              :      1
        maximum number of iterations    :   300
        maximum number DIIS vectors     :    10
        max. dim. of reduced space      :   100
        core memory limit (MB)          : 22888


     MP2 energy only: Energy will be calculated directly from T2 amplitudes!

     Scratch Directory : 


   =========================================================================

    der. integral neglect threshold  :  0.10E-07
    integral neglect threshold       :  0.66E-12
    integral storage threshold THIZE :  0.10E-04
    integral storage threshold THIME :         5


                  +------------------------------------------+
                  |     Auxiliary basis set information      |
                  +------------------------------------------+

              we will work with the 1s 3p 5d 7f 9g ... basis set
              ...i.e. with spherical basis functions...

   type   atoms  prim   cont   basis
   ---------------------------------------------------------------------------
    c       88     81     81   cc-pVTZ   [8s6p5d3f1g|8s6p5d3f1g]
    o       12     81     81   cc-pVTZ   [8s6p5d3f1g|8s6p5d3f1g]
    n       10     81     81   cc-pVTZ   [8s6p5d3f1g|8s6p5d3f1g]
    h       80     30     30   cc-pVTZ   [4s3p2d1f|4s3p2d1f]
   ---------------------------------------------------------------------------
   total:  190  11310  11310
   ---------------------------------------------------------------------------

   total number of primitive shells          :   79
   total number of contracted shells         : 3330
   total number of cartesian basis functions :13910
   total number of SCF-basis functions       :11310


 maximum number of shells which are related by symmetry :  1


 The symmetry information takes   1 MB

*---------------------------------------------------------------------*
|               simplified C1 algorithm will be applied               |
*---------------------------------------------------------------------*
  MOs are in ASCII format !


 reading orbital data $scfmo  from file mos
 orbital characterization : scfconv=7



              +--------------------------------------------+
              | list of orbitals that will be kept frozen: |
              +--------------------------------------------+
              |   irrep   index      energy     occ/vir    |
              +--------------------------------------------+
              |   a         1      -20.6207     occupied   |
              |   a         2      -20.6206     occupied   |
              |   a         3      -20.6205     occupied   |
              |   a         4      -20.6205     occupied   |
              |   a         5      -20.6065     occupied   |
              |   a         6      -20.6060     occupied   |
              |   a         7      -20.6052     occupied   |
              |   a         8      -20.6052     occupied   |
              |   a         9      -20.5750     occupied   |
              |   a        10      -20.5747     occupied   |
              |   a        11      -20.5747     occupied   |
              |   a        12      -20.5740     occupied   |
              |   a        13      -15.6352     occupied   |
              |   a        14      -15.6346     occupied   |
              |   a        15      -15.6345     occupied   |
              |   a        16      -15.6344     occupied   |
              |   a        17      -15.6321     occupied   |
              |   a        18      -15.6311     occupied   |
              |   a        19      -15.5953     occupied   |
              |   a        20      -15.5953     occupied   |
              |   a        21      -15.5936     occupied   |
              |   a        22      -15.5930     occupied   |
              |   a        23      -11.4011     occupied   |
              |   a        24      -11.4008     occupied   |
              |   a        25      -11.4001     occupied   |
              |   a        26      -11.3996     occupied   |
              |   a        27      -11.3891     occupied   |
              |   a        28      -11.3891     occupied   |
              |   a        29      -11.3880     occupied   |
              |   a        30      -11.3878     occupied   |
              |   a        31      -11.3596     occupied   |
              |   a        32      -11.3586     occupied   |
              |   a        33      -11.3567     occupied   |
              |   a        34      -11.3557     occupied   |
              |   a        35      -11.3280     occupied   |
              |   a        36      -11.3278     occupied   |
              |   a        37      -11.3266     occupied   |
              |   a        38      -11.3265     occupied   |
              |   a        39      -11.3187     occupied   |
              |   a        40      -11.3186     occupied   |
              |   a        41      -11.3178     occupied   |
              |   a        42      -11.3172     occupied   |
              |   a        43      -11.3158     occupied   |
              |   a        44      -11.3152     occupied   |
              |   a        45      -11.3151     occupied   |
              |   a        46      -11.3140     occupied   |
              |   a        47      -11.2936     occupied   |
              |   a        48      -11.2933     occupied   |
              |   a        49      -11.2853     occupied   |
              |   a        50      -11.2843     occupied   |
              |   a        51      -11.2824     occupied   |
              |   a        52      -11.2813     occupied   |
              |   a        53      -11.2635     occupied   |
              |   a        54      -11.2630     occupied   |
              |   a        55      -11.2621     occupied   |
              |   a        56      -11.2614     occupied   |
              |   a        57      -11.2614     occupied   |
              |   a        58      -11.2614     occupied   |
              |   a        59      -11.2609     occupied   |
              |   a        60      -11.2604     occupied   |
              |   a        61      -11.2556     occupied   |
              |   a        62      -11.2551     occupied   |
              |   a        63      -11.2532     occupied   |
              |   a        64      -11.2530     occupied   |
              |   a        65      -11.2525     occupied   |
              |   a        66      -11.2524     occupied   |
              |   a        67      -11.2515     occupied   |
              |   a        68      -11.2513     occupied   |
              |   a        69      -11.2513     occupied   |
              |   a        70      -11.2510     occupied   |
              |   a        71      -11.2500     occupied   |
              |   a        72      -11.2500     occupied   |
              |   a        73      -11.2498     occupied   |
              |   a        74      -11.2497     occupied   |
              |   a        75      -11.2442     occupied   |
              |   a        76      -11.2431     occupied   |
              |   a        77      -11.2430     occupied   |
              |   a        78      -11.2418     occupied   |
              |   a        79      -11.2408     occupied   |
              |   a        80      -11.2401     occupied   |
              |   a        81      -11.2396     occupied   |
              |   a        82      -11.2394     occupied   |
              |   a        83      -11.2391     occupied   |
              |   a        84      -11.2388     occupied   |
              |   a        85      -11.2380     occupied   |
              |   a        86      -11.2375     occupied   |
              |   a        87      -11.2372     occupied   |
              |   a        88      -11.2359     occupied   |
              |   a        89      -11.2353     occupied   |
              |   a        90      -11.2351     occupied   |
              |   a        91      -11.2331     occupied   |
              |   a        92      -11.2331     occupied   |
              |   a        93      -11.2320     occupied   |
              |   a        94      -11.2286     occupied   |
              |   a        95      -11.2284     occupied   |
              |   a        96      -11.2282     occupied   |
              |   a        97      -11.2275     occupied   |
              |   a        98      -11.2268     occupied   |
              |   a        99      -11.2262     occupied   |
              |   a       100      -11.2262     occupied   |
              |   a       101      -11.2260     occupied   |
              |   a       102      -11.2253     occupied   |
              |   a       103      -11.2253     occupied   |
              |   a       104      -11.2251     occupied   |
              |   a       105      -11.2249     occupied   |
              |   a       106      -11.2239     occupied   |
              |   a       107      -11.2187     occupied   |
              |   a       108      -11.2186     occupied   |
              |   a       109      -11.2184     occupied   |
              |   a       110      -11.2181     occupied   |
              +--------------------------------------------+



   Molecular Orbital Statistic:
   ============================

   -----------------------------
   orbitals in total:
   -----------------------------
    frozen occupied :    110
    active occupied :    277
    active virtual  :   4033
    frozen virtual  :      0
    all together    :   4420
   -----------------------------


     time in riccmos       cpu: 31.93 sec    wall: 24.61 sec    ratio:  1.3

     total memory allocated for calculation of (Q|P)**(-1/2) : 1465 MiB


     calculation of (P|Q) ...
     time in lp2sym        cpu: 39.69 sec    wall:  5.17 sec    ratio:  7.7


     calculation of the Cholesky decomposition of (P|Q)**(-1) ...
     time in invmetri      cpu:  5 min 38 s  wall:  0 min 50 s  ratio:  6.8

   threshold for RMS(d[D]) in SCF was     :  0.10E-06
   integral neglect threshold             :  0.66E-12
   derivative integral neglect threshold  :  0.10E-07


   =========================================================================

     Energy of reference wave function is -4823.3285621750001
     Maximum orbital residual is           0.2593384570939E-05


     Number of symmetry-nonredundant auxiliary basis functions:    11310

     Block lengths for integral files:
        frozen occupied (BOI):       10 MiB
        active occupied (BJI):       24 MiB
        active virtual  (BAI):      349 MiB
        frozen virtual  (BGI):        0 MiB
               general  (BTI):      382 MiB

   =========================================================================




   **************************************************************************
   *                                                                        *
   *          OPTIMIZATION OF THE GROUND STATE CLUSTER AMPLITUDES           *
   *                                                                        *
   **************************************************************************


   Iter.   MP2 energy       Norm(Omega)    Norm(t1)  Norm(t2)     cpu    wall
   ...........................................................................
    1  -4842.2873388821     ------          0.00000   1.4683517746.50 2433.25
   ...........................................................................


     time in total         cpu:  12 d  7 h 46 min  wall:   1 d 16 h 33 min  ratio:  7.3


     **********************************************************************
     *                                                                    *
     *   RHF  energy                             :  -4823.3285621750      *
     *   MP2 correlation energy (doubles)        :    -18.9587767071      *
     *                                                                    *
     *   Final MP2 energy                        :  -4842.2873388821      *
     *                                                                    *
     *    E(S)   =    -11.5218156939      E(T)   =     -7.4369610132      *
     *    E(OS)  =    -14.0008026983      E(SS)  =     -4.9579740088      *
     *                                                                    *
     *   SCS-MP2 energy                          :  -4841.7821834159      *
     *   (computed with  C(OS) =   1.2000  and  C(SS) =   0.3333)         *
     *                                                                    *
     *   SOS-MP2 energy                          :  -4841.5296056828      *
     *   (computed with  C(OS) =   1.3000)                                *
     *                                                                    *
     *   Norm of MP1 T2 amplitudes               :      1.4683528713      *
     *                                                                    *
     **********************************************************************



    ------------------------------------------------------------------------
         total  cpu-time :  12 days 17 hours 56 minutes and 17 seconds
         total wall-time :   1 days 18 hours 35 minutes and 22 seconds
    ------------------------------------------------------------------------

   ****  ricc2 : all done  ****


    2018-04-05 15:12:31.824 

