           Doing BLAS/Lapack in the master proc. with  8 CPUs.
           SMPCPUS    set: Shared-memory Parallelization with   8 CPUs.

           SMP Parallelization Reference:
           C. van Wullen, J. Comput. Chem. 32 (2011) 1195--1201
 operating system is UNIX !

 ridft (c-13-18.gp.local) : TURBOMOLE V7.2 ( 21454 ) 4 Oct 2017 at 12:48:15
 Copyright (C) 2017 TURBOMOLE GmbH, Karlsruhe


    2018-04-28 20:54:59.052 



                                  r i d f t

                        DFT program with RI approximation 
                                for coulomb part 




                                                 
                                 References:     
                                                 
          TURBOMOLE:                             
              R. Ahlrichs, M. Baer, M. Haeser, H. Horn, and
              C. Koelmel
              Electronic structure calculations on workstation
              computers: the program system TURBOMOLE
              Chem. Phys. Lett. 162: 165 (1989)
          Density Functional:                              
              O. Treutler and R. Ahlrichs                      
              Efficient Molecular Numerical Integration Schemes
              J. Chem. Phys. 102: 346 (1995)                   
          Parallel Version:                                
              Performance of parallel TURBOMOLE for Density    
              Functional Calculations                          
              M. v. Arnim and R. Ahlrichs                      
              J. Comp. Chem. 19: 1746 (1998)                   
          RI-J Method:                                     
              Auxiliary Basis Sets to approximate Coulomb      
              Potentials                                       
              Chem. Phys. Lett. 240: 283 (1995)                
              K. Eichkorn, O. Treutler, H. Oehm, M. Haeser     
              and R. Ahlrichs                                  
              Chem. Phys. Lett. 242: 652 (1995)                
                                                           
              Auxiliary Basis Sets for Main Row Atoms and their
              Use to approximate Coulomb Potentials            
              K. Eichkorn, F. Weigend, O. Treutler and         
              R. Ahlrichs                                      
              Theo. Chem. Acc. 97: 119 (1997)                   
                                                           
              Accurate Coulomb-fitting basis sets for H to Rn 
              F. Weigend                                        
              Phys. Chem. Chem. Phys. 8: 1057 (2006)            
                                                           
          Multipole accelerated RI-J (MARI-J):             
              Fast evaluation of the Coulomb potential for     
              electron densities using multipole accelerated   
              resolution of identity approximation             
              M. Sierka, A. Hogekamp and R. Ahlrichs           
              J. Chem. Phys. 118: 9136 (2003)                  
          RI-JK Method:                                     
              A fully direct RI-HF algorithm: Implementation,
              optimised auxiliary basis sets, demonstration of
              accuracy and efficiency                         
              F. Weigend                                      
              Phys. Chem. Chem. Phys. 4: 4285 (2002)           
          Two-component HF and DFT with spin-orbit coupling:  
              Self-consistent treatment of spin-orbit         
              interactions with efficient Hartree-Fock and    
              density functional methods                      
              M. K. Armbruster, F. Weigend, C. van Wüllen and 
              W. Klopper                                      
              Phys. Chem. Chem. Phys. 10: 1748 (2008)         
          Relativistic all-electron 2c calculations           
              An efficient implementation of two-component    
              relativistic exact-decoupling methods for large 
              molecules                                       
              D. Peng, N. Middendorf, F. Weigend, M. Reiher   
              J. Chem. Phys. 138, 184105 (2013)               
                                         




              +--------------------------------------------------+
              |      general information about current run       |
              +--------------------------------------------------+

 

 DENSITY CONVERGENCE CHECK SWITCHED ON !
 SCF CONVERGENCE IF RMS(delta[D]) <     0.1000000000E-06

 PBE functional
 exchange:    LDA + PBE
 correlation: LDA (PW) + PBE
 A DFT calculation using the RI-J approximation will be carried out.
 Allocatable memory for RI due to $ricore (MB):                  5000


              +--------------------------------------------------+
              | Atomic coordinate, charge and isotop information |
              +--------------------------------------------------+

                    atomic coordinates            atom    charge  isotop
         -2.56144987   -1.57989785    1.38823995    n      7.000     0
         -1.94712124   -2.61258855    2.87872494    h      1.000     0
         -2.43310269   -2.74733730   -0.98389535    c      6.000     0
         -1.69909272   -4.92722701   -1.18292459    o      8.000     0
         -3.76052233    2.29962631   -0.18532888    n      7.000     0
         -3.22358042   -1.86542644   -4.93595627    h      1.000     0
         -3.78757176    1.32445757   -2.57833742    c      6.000     0
         -4.30116174    2.63571739   -4.05468202    h      1.000     0
         -3.19944265   -1.11160545   -3.04715924    c      6.000     0
         -3.98356913    4.16726647    0.10739148    h      1.000     0
         -3.06986919    0.92390129    1.92509860    c      6.000     0
         -2.90956559    1.84346168    4.02475582    o      8.000     0
 
       center of nuclear mass  :   -2.90722941   -0.50191366    0.00000250
       center of nuclear charge:   -2.92273142   -0.46500962   -0.05095267

              +--------------------------------------------------+
              |               basis set information              |
              +--------------------------------------------------+

              we will work with the 1s 3p 5d 7f 9g ... basis set
              ...i.e. with spherical basis functions...

   type   atoms  prim   cont   basis
   ---------------------------------------------------------------------------
    n        2     77     55   cc-pVQZ   [5s4p3d2f1g|21s6p3d2f1g]
    h        4     32     30   cc-pVQZ   [4s3p2d1f|6s3p2d1f]
    c        4     77     55   cc-pVQZ   [5s4p3d2f1g|21s6p3d2f1g]
    o        2     77     55   cc-pVQZ   [5s4p3d2f1g|21s6p3d2f1g]
   ---------------------------------------------------------------------------
   total:   12    744    560
   ---------------------------------------------------------------------------

   total number of primitive shells          :  111
   total number of contracted shells         :  160
   total number of cartesian basis functions :  700
   total number of SCF-basis functions       :  560


 integral neglect threshold       :  0.48E-13
 integral storage threshold THIZE :  0.10E-04
 integral storage threshold THIME :         5

 RI-J AUXILIARY BASIS SET information:

              we will work with the 1s 3p 5d 7f 9g ... basis set
              ...i.e. with spherical basis functions...

   type   atoms  prim   cont   basis
   ---------------------------------------------------------------------------
    n        2     70     49   cc-pVQZ   [6s4p3d1f1g|12s5p4d2f1g]
    h        4     16     11   cc-pVQZ   [3s1p1d|5s2p1d]
    c        4     70     49   cc-pVQZ   [6s4p3d1f1g|12s5p4d2f1g]
    o        2     70     49   cc-pVQZ   [6s4p3d1f1g|12s5p4d2f1g]
   ---------------------------------------------------------------------------
   total:   12    624    436
   ---------------------------------------------------------------------------

   total number of primitive shells          :   80
   total number of contracted shells         :  140
   total number of cartesian basis functions :  536
   total number of SCF-basis functions       :  436


 symmetry group of the molecule :   c1 

 the group has the following generators :
   c1(z)

    1 symmetry operations found

 there are 1 real representations :   a   

 maximum number of shells which are related by symmetry :  1


    mo occupation :
   irrep   mo's   occupied
    a      560       29
 
 number of basis functions   :                    560
 number of occupied orbitals :                     29
 
  
           ------------------
           density functional
           ------------------
 PBE functional
 exchange:    LDA + PBE
 correlation: LDA (PW) + PBE

 iterations will be done with small grid
  
 spherical integration : Lebedev's spherical grid
 spherical gridsize    :                     5
    i.e. gridpoints    :                   590
 value for diffuse not defined
 radial integration    : Chebyshev 2nd kind (scaling 3)
 radial gridsize       :                     8
 integration cells     :                    12
 partition function    : becke
 partition sharpness   :                     3
  

 biggest AO integral is expected to be     4.785886462
  
           ------------------------
               RI-J - INFORMATION
           ------------------------
 Contributions to RI integral batches: 
  neglected integral batches:                  1739
  direct contribution:                            0
  memory contribution:                 11141
 Memory core needed for (P|Q) and Cholesky      2 MByte
 Memory core minimum needed except of (P|Q)     2 MByte
 Total minimum memory core needed (sum)         4 MByte
  
 ****************************************
 Memory allocated for RI-J   878 MByte
 ****************************************
                                            

          ------------------------
          nuclear repulsion energy  :   357.160273677    
          ------------------------


         -----------------
         -S,T+V- integrals
         -----------------

 1e-integrals will be neglected if expon. factor < 0.477423E-14
 Difference densities >>NOT<< switched on in parallel ridft!

 DIIS switched on: error vector is FDS-SDF
 Max. Iterations for DIIS is     :   4
 DIIS matrix (see manual) 
    Scaling factor of diagonals  :  1.200
    threshold for scaling factor :  0.000

 scf convergence criterion : increment of total energy < .1000000D-08
                  and increment of one-electron energy < .1000000D-05

  MOs are in ASCII format !


 automatic virtual orbital shift switched on 
      shift if e(lumo)-e(homo) < 0.10000000    


 reading orbital data $scfmo  from file mos
 orbital characterization : expanded
 mo provided and orthogonalized by Cholesky decomposition

 DSCF restart information will be dumped onto file mos


 Starting SCF iterations

          Overall gridpoints after grid construction =         63551

 ITERATION  ENERGY          1e-ENERGY        2e-ENERGY     RMS[dD(SAO)]   TOL
   1  -412.62195181547    -1261.7355650     491.95333948    0.000D+00 0.476D-13
                            Exc = -53.5487175462     Coul =  545.502057022    
                              N = 57.999991897    
                            current damping = 0.700
 
          max. resid. norm for Fia-block=  4.547D-01 for orbital     20a         
          max. resid. fock norm         =  1.091D+01 for orbital    507a         

 ITERATION  ENERGY          1e-ENERGY        2e-ENERGY     RMS[dD(SAO)]   TOL
   2  -414.27102982911    -1268.6182238     497.18692030    0.457D-02 0.476D-13
                            Exc = -53.5633773266     Coul =  550.750297629    
                              N = 57.999996691    
                            current damping = 0.650
 
          Norm of current diis error:  3.1304    
          max. resid. norm for Fia-block=  1.650D-01 for orbital      1a         
          max. resid. fock norm         =  3.650D-01 for orbital    508a         

 ITERATION  ENERGY          1e-ENERGY        2e-ENERGY     RMS[dD(SAO)]   TOL
   3  -414.47750359702    -1271.2483641     499.61058680    0.284D-02 0.476D-13
                            Exc = -53.8294061591     Coul =  553.439992957    
                              N = 57.999997984    
                            current damping = 0.550
 
          Norm of current diis error:  1.4826    
          max. resid. norm for Fia-block=  6.597D-02 for orbital      1a         
          max. resid. fock norm         =  8.218D-02 for orbital    282a         

 ITERATION  ENERGY          1e-ENERGY        2e-ENERGY     RMS[dD(SAO)]   TOL
   4  -414.53542983975    -1271.5302525     499.83454903    0.230D-02 0.476D-13
                            Exc = -53.7432683778     Coul =  553.577817408    
                              N = 57.999998897    
                            current damping = 0.400
 
          Norm of current diis error: 0.69287    
          max. resid. norm for Fia-block=  3.139D-02 for orbital     10a         
          max. resid. fock norm         =  7.225D-02 for orbital    487a         

 ITERATION  ENERGY          1e-ENERGY        2e-ENERGY     RMS[dD(SAO)]   TOL
   5  -414.54457163092    -1271.7996537     500.09480843    0.866D-03 0.476D-13
                            Exc = -53.8351889143     Coul =  553.929997346    
                              N = 57.999999029    
                            current damping = 0.250
 
          Norm of current diis error: 0.44263    
          max. resid. norm for Fia-block=  9.935D-03 for orbital     26a         
          max. resid. fock norm         =  1.181D-02 for orbital    448a         
          mo-orthogonalization: Cholesky decomposition

 ITERATION  ENERGY          1e-ENERGY        2e-ENERGY     RMS[dD(SAO)]   TOL
   6  -414.54984491797    -1272.1675274     500.45740880    0.727D-03 0.476D-13
                            Exc = -53.8321394546     Coul =  554.289548256    
                              N = 57.999999024    
                            current damping = 0.100
 
          Norm of current diis error: 0.11730    
          max. resid. norm for Fia-block=  3.979D-03 for orbital     26a         
          max. resid. fock norm         =  6.450D-03 for orbital    510a         

 ITERATION  ENERGY          1e-ENERGY        2e-ENERGY     RMS[dD(SAO)]   TOL
   7  -414.54986486080    -1271.8864955     500.17635699    0.195D-03 0.476D-13
                            Exc = -53.8077174057     Coul =  553.984074395    
                              N = 57.999999215    
                            current damping = 0.150
 
          Norm of current diis error: 0.10946    
          max. resid. norm for Fia-block=  2.524D-03 for orbital     28a         
          max. resid. fock norm         =  4.556D-03 for orbital    536a         

 ITERATION  ENERGY          1e-ENERGY        2e-ENERGY     RMS[dD(SAO)]   TOL
   8  -414.55014561312    -1271.9708219     500.26040265    0.820D-04 0.476D-13
                            Exc = -53.8193942572     Coul =  554.079796912    
                              N = 57.999999253    
                            current damping = 0.200
 
          Norm of current diis error: 0.36609E-01
          max. resid. norm for Fia-block=  1.306D-03 for orbital     29a         
          max. resid. fock norm         =  2.598D-03 for orbital    546a         

 ITERATION  ENERGY          1e-ENERGY        2e-ENERGY     RMS[dD(SAO)]   TOL
   9  -414.55015874482    -1272.0382775     500.32784509    0.720D-04 0.476D-13
                            Exc = -53.8256885174     Coul =  554.153533603    
                              N = 57.999999087    
                            current damping = 0.050
 
          Norm of current diis error: 0.29056E-01
          max. resid. norm for Fia-block=  8.383D-04 for orbital     29a         
          max. resid. fock norm         =  1.524D-03 for orbital    502a         

 ITERATION  ENERGY          1e-ENERGY        2e-ENERGY     RMS[dD(SAO)]   TOL
  10  -414.55017918992    -1272.0196828     500.30922998    0.475D-04 0.476D-13
                            Exc = -53.8214094944     Coul =  554.130639474    
                              N = 57.999999175    
                            current damping = 0.100
 
          Norm of current diis error: 0.14587E-01
          max. resid. norm for Fia-block=  2.971D-04 for orbital     29a         
          max. resid. fock norm         =  5.142D-04 for orbital    502a         
          mo-orthogonalization: Cholesky decomposition

 ITERATION  ENERGY          1e-ENERGY        2e-ENERGY     RMS[dD(SAO)]   TOL
  11  -414.55018457065    -1272.0092316     500.29877332    0.119D-04 0.476D-13
                            Exc = -53.8222043521     Coul =  554.120977676    
                              N = 57.999999166    
                            current damping = 0.050
 
          Norm of current diis error: 0.37416E-02
          max. resid. norm for Fia-block=  7.515D-05 for orbital     24a         
          max. resid. fock norm         =  1.057D-04 for orbital     23a         

 ITERATION  ENERGY          1e-ENERGY        2e-ENERGY     RMS[dD(SAO)]   TOL
  12  -414.55018484648    -1272.0150023     500.30454378    0.168D-05 0.476D-13
                            Exc = -53.8222044647     Coul =  554.126748241    
                              N = 57.999999162    
                            current damping = 0.100
 
          Norm of current diis error: 0.16793E-02
          max. resid. norm for Fia-block=  4.215D-05 for orbital     25a         
          max. resid. fock norm         =  8.804D-05 for orbital    556a         

 ITERATION  ENERGY          1e-ENERGY        2e-ENERGY     RMS[dD(SAO)]   TOL
  13  -414.55018488840    -1272.0132361     500.30277749    0.742D-06 0.476D-13
                            Exc = -53.8221764206     Coul =  554.124953914    
                              N = 57.999999165    
                            current damping = 0.150
 
          Norm of current diis error: 0.92651E-03
          max. resid. norm for Fia-block=  2.115D-05 for orbital     28a         
          max. resid. fock norm         =  4.928D-05 for orbital    556a         

 ITERATION  ENERGY          1e-ENERGY        2e-ENERGY     RMS[dD(SAO)]   TOL
  14  -414.55018490337    -1272.0129083     500.30244969    0.567D-06 0.476D-13
                            Exc = -53.8221534262     Coul =  554.124603117    
                              N = 57.999999165    
                            current damping = 0.050
 
          Norm of current diis error: 0.38878E-03
          max. resid. norm for Fia-block=  1.315D-05 for orbital     29a         
          max. resid. fock norm         =  2.979D-05 for orbital    536a         

 ITERATION  ENERGY          1e-ENERGY        2e-ENERGY     RMS[dD(SAO)]   TOL
  15  -414.55018490353    -1272.0132236     500.30276504    0.826D-06 0.476D-13
                            Exc = -53.8221817363     Coul =  554.124946781    
                              N = 57.999999163    
                            current damping = 0.100
 
          Norm of current diis error: 0.37440E-03
          max. resid. norm for Fia-block=  7.335D-06 for orbital     28a         
          max. resid. fock norm         =  1.762D-05 for orbital    536a         
          mo-orthogonalization: Cholesky decomposition

 ITERATION  ENERGY          1e-ENERGY        2e-ENERGY     RMS[dD(SAO)]   TOL
  16  -414.55018490778    -1272.0132600     500.30280137    0.408D-06 0.476D-13
                            Exc = -53.8221809195     Coul =  554.124982293    
                              N = 57.999999164    
                            current damping = 0.050
 
          Norm of current diis error: 0.63267E-04
          max. resid. norm for Fia-block=  2.794D-06 for orbital     27a         
          max. resid. fock norm         =  4.431D-06 for orbital    503a         

 ITERATION  ENERGY          1e-ENERGY        2e-ENERGY     RMS[dD(SAO)]   TOL
  17  -414.55018490765    -1272.0131477     500.30268911    0.104D-06 0.476D-13
                            Exc = -53.8221639882     Coul =  554.124853100    
                              N = 57.999999164    
                            current damping = 0.100
 
          Norm of current diis error: 0.91361E-04
          max. resid. norm for Fia-block=  1.728D-06 for orbital     26a         
          max. resid. fock norm         =  2.670D-06 for orbital    503a         

 ENERGY & DENSITY CONVERGED !

          Overall gridpoints after grid construction =        200158

 ITERATION  ENERGY          1e-ENERGY        2e-ENERGY     RMS[dD(SAO)]   TOL
  18  -414.55018484218    -1272.0131452     500.30268663    0.604D-07 0.476D-13
                            Exc = -53.8221716886     Coul =  554.124858320    
                              N = 58.000000342    
                            current damping = 0.050
 
          Norm of current diis error: 0.24665E-04
          max. resid. norm for Fia-block=  4.276D-07 for orbital     24a         
          max. resid. fock norm         =  8.120D-07 for orbital    553a         

 End of SCF iterations

   convergence criteria satisfied after    18 iterations


                  ------------------------------------------ 
                 |  total energy      =   -414.55018484218  |
                  ------------------------------------------ 
                 :  kinetic energy    =    413.02904992839  :
                 :  potential energy  =   -827.57923477057  :
                 :  virial theorem    =      1.99633063747  :
                 :  wavefunction norm =      1.00000000000  :
                  .......................................... 


 <geterg> : there is no data group $energy 


 <skperg> : $end is missing 


 orbitals $scfmo  will be written to file mos

    irrep                 25a         26a         27a         28a         29a   
 eigenvalues H         -0.34052    -0.26178    -0.25696    -0.23349    -0.22688
            eV          -9.2662     -7.1233     -6.9924     -6.3536     -6.1737
 occupation              2.0000      2.0000      2.0000      2.0000      2.0000 

    irrep                 30a         31a         32a         33a         34a   
 eigenvalues H         -0.08583    -0.03744    -0.01862     0.02367     0.02749
            eV          -2.3357     -1.0189     -0.5068      0.6441      0.7479
 
 
 
 
 ==============================================================================
                           electrostatic moments
 ==============================================================================

 reference point for electrostatic moments:    0.00000   0.00000   0.00000

 
              nuc           elec       ->  total
 ------------------------------------------------------------------------------
                          charge      
 ------------------------------------------------------------------------------
          58.000000     -58.000000       0.000000
 
 ------------------------------------------------------------------------------
                       dipole moment  
 ------------------------------------------------------------------------------
   x    -169.518422     169.026184      -0.492238
   y     -26.970558      28.296935       1.326377
   z      -2.955255       2.009755      -0.945500
 
   | dipole moment | =     1.7016 a.u. =     4.3251 debye 
 
 ------------------------------------------------------------------------------
                     quadrupole moment
 ------------------------------------------------------------------------------
  xx     523.846658    -555.169141     -31.322482
  yy     378.864257    -416.058505     -37.194248
  zz     327.259707    -362.439218     -35.179511
  xy     -10.648463       7.048523      -3.599940
  xz      25.696113     -21.215761       4.480352
  yz     105.819393    -112.419635      -6.600243
 
     1/3  trace=     -34.565414
     anisotropy=      16.015484
 
 ==============================================================================
 


    ------------------------------------------------------------------------
         total  cpu-time :  6 minutes and 55 seconds
         total wall-time :  1 minutes and  0 seconds
    ------------------------------------------------------------------------

   ****  ridft : all done  ****


    2018-04-28 20:55:58.956 

