STARTING ridft ON 32 PROCESSORS!
RUNNING PROGRAM /sopt/TURBOMOLE/7.3-official/bin/em64t-unknown-linux-gnu_smp/ridft_mpi.
           SMPCPUS    set: Shared-memory Parallelization with  32 CPUs.

           SMP Parallelization Reference:
           C. van Wullen, J. Comput. Chem. 32 (2011) 1195--1201
 operating system is UNIX !

 ridft (c-16-23) : TURBOMOLE V7.3 ( 22118 ) 1 Jul 2018 at 20:38:15
 Copyright (C) 2018 TURBOMOLE GmbH, Karlsruhe


    2019-03-12 12:58:54.661 



                                  r i d f t

                        DFT program with RI approximation 
                                for coulomb part 




                                                 
                                 References:     
                                                 
          TURBOMOLE:                             
              R. Ahlrichs, M. Baer, M. Haeser, H. Horn, and
              C. Koelmel
              Electronic structure calculations on workstation
              computers: the program system TURBOMOLE
              Chem. Phys. Lett. 162: 165 (1989)
          Density Functional:                              
              O. Treutler and R. Ahlrichs                      
              Efficient Molecular Numerical Integration Schemes
              J. Chem. Phys. 102: 346 (1995)                   
          Parallel Version:                                
              Performance of parallel TURBOMOLE for Density    
              Functional Calculations                          
              M. v. Arnim and R. Ahlrichs                      
              J. Comp. Chem. 19: 1746 (1998)                   
          RI-J Method:                                     
              Auxiliary Basis Sets to approximate Coulomb      
              Potentials                                       
              Chem. Phys. Lett. 240: 283 (1995)                
              K. Eichkorn, O. Treutler, H. Oehm, M. Haeser     
              and R. Ahlrichs                                  
              Chem. Phys. Lett. 242: 652 (1995)                
                                                           
              Auxiliary Basis Sets for Main Row Atoms and their
              Use to approximate Coulomb Potentials            
              K. Eichkorn, F. Weigend, O. Treutler and         
              R. Ahlrichs                                      
              Theo. Chem. Acc. 97: 119 (1997)                   
                                                           
              Accurate Coulomb-fitting basis sets for H to Rn 
              F. Weigend                                        
              Phys. Chem. Chem. Phys. 8: 1057 (2006)            
                                                           
          Multipole accelerated RI-J (MARI-J):             
              Fast evaluation of the Coulomb potential for     
              electron densities using multipole accelerated   
              resolution of identity approximation             
              M. Sierka, A. Hogekamp and R. Ahlrichs           
              J. Chem. Phys. 118: 9136 (2003)                  
          RI-JK Method:                                     
              A fully direct RI-HF algorithm: Implementation,
              optimised auxiliary basis sets, demonstration of
              accuracy and efficiency                         
              F. Weigend                                      
              Phys. Chem. Chem. Phys. 4: 4285 (2002)           
          Two-component HF and DFT with spin-orbit coupling:  
              Self-consistent treatment of spin-orbit         
              interactions with efficient Hartree-Fock and    
              density functional methods                      
              M. K. Armbruster, F. Weigend, C. van Wüllen and 
              W. Klopper                                      
              Phys. Chem. Chem. Phys. 10: 1748 (2008)         
          Two-component difference density and DIIS algorithm 
              Efficient two-component self-consistent field   
              procedures and gradients: implementation in     
              TURBOMOLE and application to Au20-              
              A. Baldes, F. Weigend                           
              Mol. Phys. 111: 2617 (2013)                     
          Relativistic all-electron 2c calculations           
              An efficient implementation of two-component    
              relativistic exact-decoupling methods for large 
              molecules                                       
              D. Peng, N. Middendorf, F. Weigend, M. Reiher   
              J. Chem. Phys. 138: 184105 (2013)               
          Finite nucleus model and SNSO approximation         
              Efficient implementation of one- and two-       
              component analytical energy gradients in exact  
              two-component theory                            
              Y. J. Franzke, N. Middendorf, F. Weigend        
              J. Chem. Phys. 148: 104110 (2018)               
                                         




              +--------------------------------------------------+
              |      general information about current run       |
              +--------------------------------------------------+

 
 PBE functional
 exchange:    LDA + PBE
 correlation: LDA (PW) + PBE
 A DFT calculation using the RI-J approximation will be carried out.
 Allocatable memory for RI due to $ricore (MB):                  8000


              +--------------------------------------------------+
              | Atomic coordinate, charge and isotop information |
              +--------------------------------------------------+

                    atomic coordinates            atom    charge  isotop
         -1.14553187    0.10558668    1.11305796    c      6.000     0
         -3.15213248    0.10540182    1.11307065    h      1.000     0
          1.14488817    0.10495703    1.11355182    c      6.000     0
          3.15145502    0.10367658    1.11442430    h      1.000     0
         -4.78177039   -0.65659669    7.97183645    c      6.000     0
         -4.79758103   -1.90750758    6.33455772    h      1.000     0
         -4.87988181   -1.84007399    9.65480911    h      1.000     0
         -6.48708688    0.49406522    7.90992595    h      1.000     0
         -2.39970989    0.95836462    7.99275434    c      6.000     0
         -2.43117698    2.23014884    9.61869194    h      1.000     0
         -2.35196220    2.15685919    6.31317310    h      1.000     0
          0.00008851   -0.62585138    8.06920384    c      6.000     0
          0.00009368   -1.79330462    9.77574256    h      1.000     0
          0.00021530   -1.92654828    6.46437057    h      1.000     0
          2.39984900    0.95844979    7.99291851    c      6.000     0
          2.43127104    2.23017333    9.61887913    h      1.000     0
          2.35233200    2.15686179    6.31332767    h      1.000     0
          4.78189130   -0.65657929    7.97223278    c      6.000     0
          4.79772676   -1.90754540    6.33501360    h      1.000     0
          6.48714004    0.49413418    7.91038892    h      1.000     0
          4.87981167   -1.83995364    9.65528627    h      1.000     0
 
       center of nuclear mass  :   -0.00003380    0.01027140    6.17266054
       center of nuclear charge:   -0.00002762   -0.00202907    6.27651778

              +--------------------------------------------------+
              |               basis set information              |
              +--------------------------------------------------+

              we will work with the 1s 3p 5d 7f 9g ... basis set
              ...i.e. with spherical basis functions...

   type   atoms  prim   cont   basis
   ---------------------------------------------------------------------------
    c        7     77     57   def2-QZVP   [7s4p3d2f1g|15s8p3d2f1g]
    h       14     33     30   def2-QZVP   [4s3p2d1f|7s3p2d1f]
   ---------------------------------------------------------------------------
   total:   21   1001    819
   ---------------------------------------------------------------------------

   total number of primitive shells          :   42
   total number of contracted shells         :  259
   total number of cartesian basis functions :  994
   total number of SCF-basis functions       :  819


 integral neglect threshold       :  0.34E-11
 integral storage threshold THIZE :  0.10E-04
 integral storage threshold THIME :         5

 RI-J AUXILIARY BASIS SET information:

              we will work with the 1s 3p 5d 7f 9g ... basis set
              ...i.e. with spherical basis functions...

   type   atoms  prim   cont   basis
   ---------------------------------------------------------------------------
    c        7     70     49   def2-QZVP   [6s4p3d1f1g|12s5p4d2f1g]
    h       14     16     11   def2-QZVP   [3s1p1d|5s2p1d]
   ---------------------------------------------------------------------------
   total:   21    714    497
   ---------------------------------------------------------------------------

   total number of primitive shells          :   32
   total number of contracted shells         :  175
   total number of cartesian basis functions :  595
   total number of SCF-basis functions       :  497


 symmetry group of the molecule :   c1 

 the group has the following generators :
   c1(z)

    1 symmetry operations found

 there are 1 real representations :   a   

 maximum number of shells which are related by symmetry :  1


    mo occupation :
   irrep   mo's   occupied
    a      819       28
 
 number of basis functions   :                    819
 number of occupied orbitals :                     28
 
  
           ------------------
           density functional
           ------------------
 PBE functional
 exchange:    LDA + PBE
 correlation: LDA (PW) + PBE

 iterations will be done with small grid
  
 spherical integration : Lebedev's spherical grid
 spherical gridsize    :                     4
    i.e. gridpoints    :                   434
 value for diffuse not defined
 radial integration    : Chebyshev 2nd kind (scaling 3)
 radial gridsize       :                     6
 integration cells     :                    21
 partition function    : becke
 partition sharpness   :                     3
  

 biggest AO integral is expected to be     5.262544080
  
           ------------------------
               RI-J - INFORMATION
           ------------------------
 Contributions to RI integral batches: 
  neglected integral batches:                  7355
  direct contribution:                            0
  memory contribution:                 26315
 Memory core needed for (P|Q) and Cholesky      2 MByte
 Memory core minimum needed except of (P|Q)     4 MByte
 Total minimum memory core needed (sum)         5 MByte
  
 ****************************************
 Memory allocated for RI-J  1715 MByte
 ****************************************
                                            

          ------------------------
          nuclear repulsion energy  :   285.696973710    
          ------------------------

   .------------------------------.
   |            DFT-D4            |
   |          ==========          |
   |  E. Caldeweyher,  S. Grimme  |
   |   University of Bonn, MCTC   |
   |     02/2018, Version 1.0     |
   '------------------------------'
  This code comes without any warranty

 Cite this work as:
   E. Caldeweyher, C. Bannwarth, and S. Grimme,
   J. Chem. Phys., 2017, 147, 034112.
   E. Caldeweyher, S. Ehlert, and S. Grimme,
   J. Chem. Phys., in preparation.

 Contributions:
   P. Shushkov - GBSA(H2O)
   S. Ehlert   - MBD, DFA fit

number of atoms            :    21
number of electrons        :    42
charge                     :  0
spin                       : 0.0
 Found param_gfn2.xtb file !
========================================================================
    G F N  parametrization, version 3
   Geometries Frequencies Non-covalent interactions
 /sopt/TURBOMOLE/7.3-official/parameter/param_gfn2.xtb
========================================================================
 method parameters:
------------------------------------------------------------------------
k(s)        :               1.8500
k(p)        :               2.2300
k(d)        :               2.2300
k(f)        :               2.0000
kEN (H0ij)  :              -2.0000
D3 a1       :               0.5200
D3 a2       :               5.0000
D3 s8       :               2.7000
D3atm       :               5.0000
alphaj      :               2.0000
AESdamp     :               4.0000
AESrad      :               3.0000
expscalexp  :               5.0000
------------------------------------------------------------------------
------------------------------------------------------------------------
 xTB basis
------------------------------------------------------------------------
  Z AO/shell   Hii/eV     exponent
  1     Wed Apr 25 08:07:45 CEST 2018   EN: 2.200 GM2: 0.406  GM3: 0.0800  RAES: 1.40
     1s    -10.707211    1.230000
  6     Wed Apr 25 08:07:45 CEST 2018   EN: 2.550 GM2: 0.538  GM3: 0.1500  RAES: 3.00
     2s    -13.970922    2.096432
     2p    -10.063292    1.800000
------------------------------------------------------------------------
 DFT-D4 reference setup
------------------------------------------------------------------------
 C      q(ref)        CN(ref)   cov. CN(ref)  alpha(AIM,ref)
     0.0000000      0.0000000      0.0000000     12.3555336
    -0.1299310      0.9367838      0.9179641     12.6203061
    -0.0788263      1.9884028      1.9096951      9.3103249
    -0.0767301      2.9881158      2.8401678      8.8356702
    -0.0945886      3.9165802      3.7567914      6.6924619
    -0.0285648      3.3673832      3.0308559      8.9184424
     0.0506204      0.9979550      0.8555886      7.7402501
 H      q(ref)        CN(ref)   cov. CN(ref)  alpha(AIM,ref)
     0.0000000      0.0000000      0.0000000      5.0540161
     0.0000000      0.8115055      0.8943405      2.7207580
 no old-style atom pair restraing (fixing) potential
------------------------------------------------------------------------
 SCC calculation
------------------------------------------------------------------------

------------------------------------------------------------------------
 Dispersion Energy Calculation
 * damping parameters for pbe-D4
 s6       :    1.0000
 s8       :    0.9516
 a1       :    0.4044
 a2       :    4.6501
========================================================================
 Edisp  /kcal,au:    -9.7413  -0.01552370
------------------------------------------------------------------------
 E(2)   /kcal,au:    -9.8511  -0.01569868
 Emany  /kcal,au:     0.1098   0.00017498
 Eresp  /kcal,au:     0.0000   0.00000000
========================================================================
 nuclear repulsion energy                  =     285.696973710
 empirical dispersive energy correction    =      -0.015523699
 nuclear repulsion + dispersion correction =     285.681450011


         -----------------
         -S,T+V- integrals
         -----------------

 1e-integrals will be neglected if expon. factor < 0.336213E-12
 Difference densities >>NOT<< switched on in parallel ridft!

 DIIS switched on: error vector is FDS-SDF
 Max. Iterations for DIIS is     :   4
 DIIS matrix (see manual) 
    Scaling factor of diagonals  :  1.200
    threshold for scaling factor :  0.000

 scf convergence criterion : increment of total energy < .1000000D-06
                  and increment of one-electron energy < .1000000D-03

  MOs are in ASCII format !


 automatic virtual orbital shift switched on 
      shift if e(lumo)-e(homo) < 0.10000000    


 reading orbital data $scfmo  from file mos
 orbital characterization : expanded
 mo provided and orthogonalized by Cholesky decomposition

 DSCF restart information will be dumped onto file mos


 Starting SCF iterations

          Overall gridpoints after grid construction =         49465

 ITERATION  ENERGY          1e-ENERGY        2e-ENERGY     NORM[dD(SAO)]  TOL
   1  -273.81788482825    -922.71538142     363.21604658    0.000D+00 0.335D-11
                            Exc = -41.2881332512     Coul =  404.504179834    
                              N = 55.999018414    
                            current damping = 0.700
 
          max. resid. norm for Fia-block=  4.761D-01 for orbital      9a         
          max. resid. fock norm         =  4.474D+01 for orbital    660a         

 ITERATION  ENERGY          1e-ENERGY        2e-ENERGY     NORM[dD(SAO)]  TOL
   2  -274.62335762950    -930.66891224     370.36410460    0.000D+00 0.335D-11
                            Exc = -42.1943058693     Coul =  412.558410466    
                              N = 55.999162622    
                            current damping = 0.650
 
          Norm of current diis error:  3.1036    
          max. resid. norm for Fia-block=  1.404D-01 for orbital      2a         
          max. resid. fock norm         =  1.473D-01 for orbital      2a         

 ITERATION  ENERGY          1e-ENERGY        2e-ENERGY     NORM[dD(SAO)]  TOL
   3  -274.77906355726    -932.25229454     371.79178097    0.000D+00 0.335D-11
                            Exc = -42.4612414306     Coul =  414.253022400    
                              N = 55.999262127    
                            current damping = 0.550
 
          Norm of current diis error:  1.4542    
          max. resid. norm for Fia-block=  5.631D-02 for orbital      2a         
          max. resid. fock norm         =  5.904D-02 for orbital      2a         

 ITERATION  ENERGY          1e-ENERGY        2e-ENERGY     NORM[dD(SAO)]  TOL
   4  -274.82339575678    -933.82433409     373.31948832    0.000D+00 0.335D-11
                            Exc = -42.6635328109     Coul =  415.983021128    
                              N = 55.999347898    
                            current damping = 0.450
 
          Norm of current diis error: 0.52588    
          max. resid. norm for Fia-block=  2.039D-02 for orbital      2a         
          max. resid. fock norm         =  2.291D-02 for orbital      9a         

 ITERATION  ENERGY          1e-ENERGY        2e-ENERGY     NORM[dD(SAO)]  TOL
   5  -274.83033545870    -933.99752323     373.48573776    0.000D+00 0.335D-11
                            Exc = -42.7157720160     Coul =  416.201509780    
                              N = 55.999377905    
                            current damping = 0.300
 
          Norm of current diis error: 0.19925    
          max. resid. norm for Fia-block=  7.148D-03 for orbital     14a         
          max. resid. fock norm         =  7.297D-03 for orbital     14a         
          mo-orthogonalization: Cholesky decomposition

 ITERATION  ENERGY          1e-ENERGY        2e-ENERGY     NORM[dD(SAO)]  TOL
   6  -274.83131556054    -934.40337197     373.89060640    0.000D+00 0.335D-11
                            Exc = -42.7568386192     Coul =  416.647445015    
                              N = 55.999398385    
                            current damping = 0.150
 
          Norm of current diis error: 0.71604E-01
          max. resid. norm for Fia-block=  2.089D-03 for orbital     24a         
          max. resid. fock norm         =  3.650D-03 for orbital    816a         

 ITERATION  ENERGY          1e-ENERGY        2e-ENERGY     NORM[dD(SAO)]  TOL
   7  -274.83141150468    -934.26751460     373.75465309    0.000D+00 0.335D-11
                            Exc = -42.7522746011     Coul =  416.506927688    
                              N = 55.999397366    
                            current damping = 0.200
 
          Norm of current diis error: 0.33846E-01
          max. resid. norm for Fia-block=  6.760D-04 for orbital     19a         
          max. resid. fock norm         =  1.897D-03 for orbital    816a         

 ITERATION  ENERGY          1e-ENERGY        2e-ENERGY     NORM[dD(SAO)]  TOL
   8  -274.83143174130    -934.31417329     373.80129154    0.000D+00 0.335D-11
                            Exc = -42.7551039258     Coul =  416.556395461    
                              N = 55.999398989    
                            current damping = 0.250
 
          Norm of current diis error: 0.67770E-02
          max. resid. norm for Fia-block=  2.232D-04 for orbital     20a         
          max. resid. fock norm         =  6.051D-04 for orbital    816a         

 ITERATION  ENERGY          1e-ENERGY        2e-ENERGY     NORM[dD(SAO)]  TOL
   9  -274.83143230255    -934.32608206     373.81319975    0.000D+00 0.335D-11
                            Exc = -42.7562892086     Coul =  416.569488954    
                              N = 55.999399385    
                            current damping = 0.100
 
          Norm of current diis error: 0.40316E-02
          max. resid. norm for Fia-block=  7.407D-05 for orbital     20a         
          max. resid. fock norm         =  2.134D-04 for orbital    816a         

 ITERATION  ENERGY          1e-ENERGY        2e-ENERGY     NORM[dD(SAO)]  TOL
  10  -274.83143257751    -934.32265169     373.80976911    0.000D+00 0.335D-11
                            Exc = -42.7559637112     Coul =  416.565732817    
                              N = 55.999399274    
                            current damping = 0.150
 
          Norm of current diis error: 0.10155E-02
          max. resid. norm for Fia-block=  5.487D-05 for orbital     27a         
          max. resid. fock norm         =  1.153D-04 for orbital    819a         
          mo-orthogonalization: Cholesky decomposition

 ITERATION  ENERGY          1e-ENERGY        2e-ENERGY     NORM[dD(SAO)]  TOL
  11  -274.83143254176    -934.32193477     373.80905222    0.000D+00 0.335D-11
                            Exc = -42.7559004103     Coul =  416.564952629    
                              N = 55.999399271    
                            current damping = 0.050
 
          Norm of current diis error: 0.16085E-02
          max. resid. norm for Fia-block=  2.618D-05 for orbital     27a         
          max. resid. fock norm         =  5.625D-05 for orbital    819a         

 ENERGY CONVERGED !

          Overall gridpoints after grid construction =        188444

 ITERATION  ENERGY          1e-ENERGY        2e-ENERGY     NORM[dD(SAO)]  TOL
  12  -274.83143364084    -934.32183306     373.80894940    0.000D+00 0.335D-11
                            Exc = -42.7558945896     Coul =  416.564843993    
                              N = 55.999967856    
                            current damping = 0.050
 
          Norm of current diis error: 0.29141E-03
          max. resid. norm for Fia-block=  8.847D-06 for orbital     15a         
          max. resid. fock norm         =  1.172D-05 for orbital    817a         

 End of SCF iterations

   convergence criteria satisfied after    12 iterations


                  ------------------------------------------ 
                 |  total energy      =   -274.83143364084  |
                  ------------------------------------------ 
                 :  kinetic energy    =    273.58185910765  :
                 :  potential energy  =   -548.41329274849  :
                 :  virial theorem    =      1.99545330563  :
                 :  wavefunction norm =      1.00000000000  :
                  .......................................... 


 <geterg> : there is no data group $energy 


 <skperg> : $end is missing 


 orbitals $scfmo  will be written to file mos

    irrep                 24a         25a         26a         27a         28a   
 eigenvalues H         -0.28426    -0.27729    -0.27331    -0.26382    -0.26345
            eV          -7.7353     -7.5455     -7.4371     -7.1791     -7.1688
 occupation              2.0000      2.0000      2.0000      2.0000      2.0000 

    irrep                 29a         30a         31a         32a         33a   
 eigenvalues H         -0.02079    -0.01934     0.00760     0.00943     0.02589
            eV          -0.5656     -0.5262      0.2069      0.2565      0.7045
 
 
 
 
 ==============================================================================
                           electrostatic moments
 ==============================================================================

 reference point for electrostatic moments:    0.00000   0.00000   0.00000

 
              nuc           elec       ->  total
 ------------------------------------------------------------------------------
                          charge      
 ------------------------------------------------------------------------------
          56.000000     -56.000000      -0.000000
 
 ------------------------------------------------------------------------------
                       dipole moment  
 ------------------------------------------------------------------------------
   x      -0.001547       0.001681       0.000134
   y      -0.113628       0.152624       0.038996
   z     351.484996    -351.523301      -0.038305
 
   | dipole moment | =     0.0547 a.u. =     0.1389 debye 
 
 ------------------------------------------------------------------------------
                     quadrupole moment
 ------------------------------------------------------------------------------
  xx     579.816802    -612.719664     -32.902862
  yy      59.416558     -96.339462     -36.922904
  zz    2731.241438   -2767.736644     -36.495205
  xy      -0.007304       0.006237      -0.001067
  xz       0.047632      -0.046417       0.001215
  yz     -11.278777      11.583704       0.304927
 
     1/3  trace=     -35.440324
     anisotropy=       3.860473
 
 ==============================================================================
 


    ------------------------------------------------------------------------
         total  cpu-time :  5 minutes and  1 seconds
         total wall-time :  1 minutes and 14 seconds
    ------------------------------------------------------------------------

   ****  ridft : all done  ****


    2019-03-12 13:00:08.896 

