Using Slurm to start processes with PMI2
STARTING ridft ON 8 PROCESSORS!
RUNNING PROGRAM /modfac/apps/TURBOMOLE/7.0_intel_GA/bin/em64t-unknown-linux-gnu_mpi/ridft_mpi.
PLEASE WAIT UNTIL ridft HAS FINISHED.
Look for the output in slave1.output.
  this is node-proc. number 1 running on node c-16-19.local
  the total number of node-proc. spawned is            8
  parallel platform: MPP, or cluster with fast interconnect

 ridft (c-16-19.local) : TURBOMOLE V7.0.2( ) 15 Jan 2016 at 17:47:42
 Copyright (C) 2016 TURBOMOLE GmbH, Karlsruhe


    2016-02-16 17:58:36.819 



                                  r i d f t

                        DFT program with RI approximation 
                                for coulomb part 




                                                 
                                 References:     
                                                 
          TURBOMOLE:                             
              R. Ahlrichs, M. Baer, M. Haeser, H. Horn, and
              C. Koelmel
              Electronic structure calculations on workstation
              computers: the program system TURBOMOLE
              Chem. Phys. Lett. 162: 165 (1989)
          Density Functional:                              
              O. Treutler and R. Ahlrichs                      
              Efficient Molecular Numerical Integration Schemes
              J. Chem. Phys. 102: 346 (1995)                   
          Parallel Version:                                
              Performance of parallel TURBOMOLE for Density    
              Functional Calculations                          
              M. v. Arnim and R. Ahlrichs                      
              J. Comp. Chem. 19: 1746 (1998)                   
          RI-J Method:                                     
              Auxiliary Basis Sets to approximate Coulomb      
              Potentials                                       
              Chem. Phys. Lett. 240: 283 (1995)                
              K. Eichkorn, O. Treutler, H. Oehm, M. Haeser     
              and R. Ahlrichs                                  
              Chem. Phys. Lett. 242: 652 (1995)                
                                                           
              Auxiliary Basis Sets for Main Row Atoms and their
              Use to approximate Coulomb Potentials            
              K. Eichkorn, F. Weigend, O. Treutler and         
              R. Ahlrichs                                      
              Theo. Chem. Acc. 97: 119 (1997)                   
                                                           
              Accurate Coulomb-fitting basis sets for H to Rn 
              F. Weigend                                        
              Phys. Chem. Chem. Phys. 8: 1057 (2006)            
                                                           
          Multipole accelerated RI-J (MARI-J):             
              Fast evaluation of the Coulomb potential for     
              electron densities using multipole accelerated   
              resolution of identity approximation             
              M. Sierka, A. Hogekamp and R. Ahlrichs           
              J. Chem. Phys. 118: 9136 (2003)                  
          RI-JK Method:                                     
              A fully direct RI-HF algorithm: Implementation,
              optimised auxiliary basis sets, demonstration of
              accuracy and efficiency                         
              F. Weigend                                      
              Phys. Chem. Chem. Phys. 4: 4285 (2002)           
          Two-component HF and DFT with spin-orbit coupling:  
              Self-consistent treatment of spin-orbit         
              interactions with efficient Hartree-Fock and    
              density functional methods                      
              M. K. Armbruster, F. Weigend, C. van Wüllen and 
              W. Klopper                                      
              Phys. Chem. Chem. Phys. 10: 1748 (2008)         
          Relativistic all-electron 2c calculations           
              An efficient implementation of two-component    
              relativistic exact-decoupling methods for large 
              molecules                                       
              D. Peng, N. Middendorf, F. Weigend, M. Reiher   
              J. Chem. Phys. 138, 184105 (2013)               
                                         


 


              +--------------------------------------------------+
              |      general information about current run       |
              +--------------------------------------------------+

 

 SCF run will be profiled !


 DENSITY CONVERGENCE CHECK SWITCHED ON !
 SCF CONVERGENCE IF RMS(delta[D]) <     0.1000000000E-06

 TPSS meta-GGA functional
 exchange:    LDA + TPSS
 correlation: LDA (PW) + TPSS
 A DFT calculation using the RI-J approximation will be carried out.
 Allocatable memory for RI due to $ricore (MB):        5000


              +--------------------------------------------------+
              | Atomic coordinate, charge and isotop information |
              +--------------------------------------------------+

                    atomic coordinates            atom    charge  isotop
         -0.27393470    6.18819168   -1.19322977    c      6.000     0
         -2.46344699    5.77825339   -2.60449615    c      6.000     0
         -4.69406082    5.39705784   -1.25235930    c      6.000     0
         -4.71896741    5.33938339    1.40380196    c      6.000     0
         -2.51326017    5.65638495    2.81229043    c      6.000     0
         -0.29785863    6.12649212    1.46128742    c      6.000     0
         -7.42369463    4.94664161   -2.11437678    c      6.000     0
         -8.01020893    2.21933216   -1.35181559    c      6.000     0
         -8.03725091    2.16388760    1.30729364    c      6.000     0
         -7.46489066    4.85601035    2.19433109    c      6.000     0
         -8.21278757    0.01810358   -2.78447366    c      6.000     0
         -8.41651894   -2.24308602   -1.44717117    c      6.000     0
         -8.44656559   -2.29788808    1.20944362    c      6.000     0
         -8.27108562   -0.09424064    2.64331112    c      6.000     0
         -8.82968866    6.36030794    0.05739098    c      6.000     0
          2.39027679    6.99321501   -1.97848657    c      6.000     0
          2.35234999    6.89052730    2.33048586    c      6.000     0
          4.24147141    4.87579578    1.47132187    c      6.000     0
          4.26509298    4.93957404   -1.18370555    c      6.000     0
          5.91295307    3.35513316    2.83024283    c      6.000     0
          7.66850865    1.97164576    1.43095732    c      6.000     0
          7.69269714    2.03631219   -1.22333311    c      6.000     0
          5.96134896    3.48626126   -2.58482410    c      6.000     0
          2.91214356    8.90127149    0.22748523    c      6.000     0
          9.87956381    0.34202153   -2.07607203    c      6.000     0
          9.16122222   -2.35520347   -1.32190122    c      6.000     0
          9.13548415   -2.42066359    1.33913553    c      6.000     0
          9.83927485    0.23553547    2.23913649    c      6.000     0
          8.55002809   -4.47912337   -2.72959602    c      6.000     0
          7.90073709   -6.70059092   -1.42800935    c      6.000     0
          7.87418644   -6.76523845    1.20657124    c      6.000     0
          8.49702128   -4.61078059    2.62830669    c      6.000     0
         11.77284263    0.92596581    0.11506542    c      6.000     0
         -8.31764847   -5.08264520    1.98096211    c      6.000     0
         -5.66577689   -5.91321763    1.16915466    c      6.000     0
         -5.63425626   -5.85826440   -1.48989788    c      6.000     0
         -8.26696602   -4.99384697   -2.32929533    c      6.000     0
         -3.49926257   -6.47956855    2.52781106    c      6.000     0
         -1.27490374   -7.03089615    1.18478270    c      6.000     0
         -1.24351538   -6.97650983   -1.44679322    c      6.000     0
         -3.43540873   -6.36901957   -2.81856432    c      6.000     0
         -9.87669143   -6.27071602   -0.21820668    c      6.000     0
         -2.45294011    5.84171039   -4.65828830    h      1.000     0
         -2.54030215    5.62747214    4.86674399    h      1.000     0
         -7.86022136    5.46728006   -4.05896166    h      1.000     0
         -7.93792690    5.29540947    4.15038661    h      1.000     0
         -8.11773434    0.05695635   -4.83605484    h      1.000     0
         -8.21892918   -0.14040665    4.69617731    h      1.000     0
         -8.40519948    8.38335425    0.10380266    h      1.000     0
        -10.87140547    6.03249714    0.03110489    h      1.000     0
          2.58575006    7.68646105   -3.90969219    h      1.000     0
          2.51428062    7.49055314    4.29570655    h      1.000     0
          5.92036080    3.32542667    4.88460190    h      1.000     0
          6.00539847    3.55672914   -4.63769029    h      1.000     0
          1.57809140   10.48166835    0.25358235    h      1.000     0
          4.86727311    9.57563916    0.26070662    h      1.000     0
         10.52462183    0.60197226   -4.01470427    h      1.000     0
         10.44833358    0.39867552    4.19987854    h      1.000     0
          8.55318394   -4.43267390   -4.78236772    h      1.000     0
          7.42214505   -8.39155566   -2.48982756    h      1.000     0
          7.37512867   -8.50599747    2.17420550    h      1.000     0
          8.46002044   -4.66543147    4.68064376    h      1.000     0
         12.34503281    2.91199238    0.16958402    h      1.000     0
         13.42257354   -0.32125344    0.09956967    h      1.000     0
         -8.86591471   -5.52843160    3.91606057    h      1.000     0
         -8.76902846   -5.35979244   -4.29349557    h      1.000     0
         -3.50574433   -6.49980752    4.58215124    h      1.000     0
          0.44499271   -7.48906025    2.20842845    h      1.000     0
          0.50075853   -7.39238186   -2.44683629    h      1.000     0
         -3.39254974   -6.30418307   -4.87158169    h      1.000     0
        -11.84561598   -5.64075692   -0.22848679    h      1.000     0
         -9.76051107   -8.33473160   -0.25925153    h      1.000     0
          0.45224926   -0.84580362   -2.67537977    c      6.000     0
          0.39459371   -0.96459181    2.64450165    c      6.000     0
          2.65068105   -1.59445642    1.27424233    c      6.000     0
          2.67838444   -1.53842604   -1.28667673    c      6.000     0
         -1.86313769   -0.39368665    1.25324747    c      6.000     0
         -1.83501856   -0.33633346   -1.30876763    c      6.000     0
          0.39835427   -0.91583687    5.28048063    c      6.000     0
          0.51181343   -0.67722115   -5.30584076    c      6.000     0
          2.77402348   -1.11680925   -6.67834885    c      6.000     0
         -1.67832247   -0.01780122   -6.70601444    c      6.000     0
          2.63210504   -1.41763475    6.67793311    c      6.000     0
         -1.82245188   -0.32546753    6.66298537    c      6.000     0
         -3.49875235    0.52904773   -7.81566162    n      7.000     0
          4.65792925   -1.46516136   -7.76197450    n      7.000     0
          4.49465692   -1.81661263    7.78079617    n      7.000     0
         -3.66775055    0.16586126    7.75745806    n      7.000     0
          4.38153791   -2.03474372   -2.30489896    h      1.000     0
          4.33176252   -2.13518266    2.30622177    h      1.000     0
         -3.59287960    0.00411960    2.26776585    h      1.000     0
         -3.54227274    0.10761990   -2.34208877    h      1.000     0
 
       center of nuclear mass  :   -0.02444991   -0.00205921   -0.00030076
       center of nuclear charge:   -0.02078855   -0.00241577   -0.00027107

              +--------------------------------------------------+
              |               basis set information              |
              +--------------------------------------------------+

              we will work with the 1s 3p 5d 7f 9g ... basis set
              ...i.e. with spherical basis functions...

   type   atoms  prim   cont   basis
   ---------------------------------------------------------------------------
    c       54     77     55   cc-pVQZ   [5s4p3d2f1g|21s6p3d2f1g]
    h       34     32     30   cc-pVQZ   [4s3p2d1f|6s3p2d1f]
    n        4     77     55   cc-pVQZ   [5s4p3d2f1g|21s6p3d2f1g]
   ---------------------------------------------------------------------------
   total:   92   5554   4210
   ---------------------------------------------------------------------------

   total number of primitive shells          :   78
   total number of contracted shells         : 1210
   total number of cartesian basis functions : 5250
   total number of SCF-basis functions       : 4210


 integral neglect threshold       :  0.63E-14
 integral storage threshold THIZE :  0.10E-04
 integral storage threshold THIME :         5

 RI-J AUXILIARY BASIS SET information:

              we will work with the 1s 3p 5d 7f 9g ... basis set
              ...i.e. with spherical basis functions...

   type   atoms  prim   cont   basis
   ---------------------------------------------------------------------------
    c       54     70     49   cc-pVQZ   [6s4p3d1f1g|12s5p4d2f1g]
    h       34     16     11   cc-pVQZ   [3s1p1d|5s2p1d]
    n        4     70     49   cc-pVQZ   [6s4p3d1f1g|12s5p4d2f1g]
   ---------------------------------------------------------------------------
   total:   92   4604   3216
   ---------------------------------------------------------------------------

   total number of primitive shells          :   56
   total number of contracted shells         : 1040
   total number of cartesian basis functions : 3946
   total number of SCF-basis functions       : 3216


 symmetry group of the molecule :   c1 

 the group has the following generators :
   c1(z)

    1 symmetry operations found

 there are 1 real representations :   a   

 maximum number of shells which are related by symmetry :  1


    mo occupation :
   irrep   mo's   occupied
    a     4210      193
 
 number of basis functions   :         4210
 number of occupied orbitals :          193
 
  
           ------------------
           density functional
           ------------------
 TPSS meta-GGA functional
 exchange:    LDA + TPSS
 correlation: LDA (PW) + TPSS
 grinp -> nfun, dfgga, dfhybrid 
           5 F F
 iterations will be done with small grid
  
 spherical integration : Lebedev's spherical grid
 spherical gridsize    :           5
    i.e. gridpoints    :         590
 value for diffuse not defined
 radial integration    : Chebyshev 2nd kind (scaling 3)
 radial gridsize       :           8
 integration cells     :          92
 partition function    : becke
 partition sharpness   :           3
  

 <rddim> : input of entry tasksize
           from data group '$pardft' failed !

               Default values taken

 <rddim> : input of entry memdiv
           from data group '$pardft' failed !

               Default values taken
  RIDFT: memory allocation for DFT gridpoints
  MEMORY is divided by 1 as DEFAULT
 Each node can hold at most  the            1 -th part
 of the gridpoints    

 biggest AO integral is expected to be     4.161848376
  
           ------------------------
               RI-J - INFORMATION
           ------------------------
 
 
 **************************************************
 *      MEMORY ALLOCATION FOR PARALLEL RI-DFT     *
 **************************************************
 
 
MEMORY FOR (MU NU/ ALPHA), SEQUENTIAL RUN               4914 MByte
 
            DIFFERENCE IN MEMORY NEED:       DIAG./SLAVE  
 
      TOTAL DIFFERENCE :                    807 MByte
 
      difference in xcore:                   87 MByte
      difference in fatmat:                 239 MByte
      getcor calls skipped by slaves:       481 MByte
 
 
           Integral memory available for diagonal.      4914 MByte
 
           Integral memory available for slave             0 MByte
 
         MEMORY FOR (MU NU/ ALPHA) ON DIAGONALIZER      4914 MByte
 
         MEMORY FOR (MU NU/ ALPHA) ON ONE SLAVE            0 MByte
 
         TOTAL MEMORY FOR (MU NU/ ALPHA),ALL NODES      4914 MByte
 
 Contributions to RI integral batches: 
  neglected integral batches:      410599
  direct contribution:             274880
  memory contribution:       47176
 Memory core needed for (P|Q) and Cholesky     79 MByte
 Memory core minimum needed except of (P|Q)     9 MByte
 Total minimum memory core needed (sum)        88 MByte
     number of direct tasks:         160
  
 ****************************************
 Memory allocated for RI-J  5002 MByte
 ****************************************
                                            

          ------------------------
          nuclear repulsion energy  :   8253.98843193    
          ------------------------

 
          -----------------
          -S integrals
          -----------------

 1e-integrals will be neglected if expon. factor < 0.636564E-15
 
          -----------------
          -T+V integrals
          -----------------

 1e-integrals will be neglected if expon. factor < 0.636564E-15
 Difference densities >>NOT<< switched on in parallel ridft!

 automatic virtual orbital shift switched on 
      shift if e(lumo)-e(homo) < 0.10000000    


 DIIS switched on: error vector is FDS-SDF
 Max. Iterations for DIIS is     :   4
 DIIS matrix (see manual) 
    Scaling factor of diagonals  :  1.200
    threshold for scaling factor :  0.000

 scf convergence criterion : increment of total energy < .1000000D-08
                  and increment of one-electron energy < .1000000D-05

  MOs are in ASCII format !


 reading orbital data $scfmo  from file mos . 

 orbital characterization : expanded
 
 mo provided and orthogonalized by Cholesky decomposition

 DSCF restart information will be dumped onto file mos


 Starting SCF iterations


 ITERATION  ENERGY          1e-ENERGY        2e-ENERGY     RMS[dD(SAO)]   TOL
   1  -2289.2466219201    -19434.684135     8891.4490814    0.000D+00 0.635D-14
                            Exc = -326.625984235     Coul =  9218.07506561    
                              N = 385.99806802    
                            current damping = 0.700
 
          max. resid. norm for Fia-block=  4.144D-01 for orbital    141a         
          max. resid. fock norm         =  7.049D+00 for orbital   3749a         

 ITERATION  ENERGY          1e-ENERGY        2e-ENERGY     RMS[dD(SAO)]   TOL
   2  -2296.4251852179    -19521.899350     8971.4857324    0.152D-01 0.635D-14
                            Exc = -331.386593728     Coul =  9302.87232609    
                              N = 385.99845176    
                            current damping = 0.650
 
          Norm of current diis error:  8.7276    
          max. resid. norm for Fia-block=  1.739D-01 for orbital      3a         
          max. resid. fock norm         =  4.185D-01 for orbital   4120a         

 ITERATION  ENERGY          1e-ENERGY        2e-ENERGY     RMS[dD(SAO)]   TOL
   3  -2297.6009459313    -19533.881856     8982.2924785    0.472D-02 0.635D-14
                            Exc = -333.193683625     Coul =  9315.48616214    
                              N = 385.99868880    
                            current damping = 0.550
 
          Norm of current diis error:  4.6509    
          max. resid. norm for Fia-block=  8.477D-02 for orbital    181a         
          max. resid. fock norm         =  8.765D-02 for orbital    192a         
          irrep a   : virtual orbitals shifted by    0.22371

 ITERATION  ENERGY          1e-ENERGY        2e-ENERGY     RMS[dD(SAO)]   TOL
   4  -2298.0479524120    -19549.943968     8997.9075841    0.148D-02 0.635D-14
                            Exc = -333.625784128     Coul =  9331.53336824    
                              N = 385.99876884    
                            current damping = 0.450
 
          Norm of current diis error:  2.1297    
          max. resid. norm for Fia-block=  5.461D-02 for orbital     76a         
          max. resid. fock norm         =  9.544D-02 for orbital   4106a         
          irrep a   : virtual orbitals shifted by    0.24902

 ITERATION  ENERGY          1e-ENERGY        2e-ENERGY     RMS[dD(SAO)]   TOL
   5  -2298.1633586401    -19551.752902     8999.6011116    0.106D-02 0.635D-14
                            Exc = -334.174693230     Coul =  9333.77580480    
                              N = 385.99882728    
                            current damping = 0.350
 
          Norm of current diis error:  1.0697    
          max. resid. norm for Fia-block=  2.853D-02 for orbital    192a         
          max. resid. fock norm         =  3.890D-02 for orbital    194a         
          irrep a   : virtual orbitals shifted by    0.23035
          mo-orthogonalization: Cholesky decomposition

 ITERATION  ENERGY          1e-ENERGY        2e-ENERGY     RMS[dD(SAO)]   TOL
   6  -2298.2217298898    -19553.726600     9001.5164380    0.818D-03 0.635D-14
                            Exc = -334.295688017     Coul =  9335.81212601    
                              N = 385.99884720    
                            current damping = 0.250
 
          Norm of current diis error: 0.51678    
          max. resid. norm for Fia-block=  2.920D-02 for orbital    192a         
          max. resid. fock norm         =  3.988D-02 for orbital    194a         
          irrep a   : virtual orbitals shifted by    0.20656

 ITERATION  ENERGY          1e-ENERGY        2e-ENERGY     RMS[dD(SAO)]   TOL
   7  -2298.2601310061    -19554.832411     9002.5838484    0.351D-03 0.635D-14
                            Exc = -334.369752908     Coul =  9336.95360131    
                              N = 385.99885571    
                            current damping = 0.150
 
          Norm of current diis error: 0.44828    
          max. resid. norm for Fia-block=  2.386D-02 for orbital    192a         
          max. resid. fock norm         =  3.620D-02 for orbital    194a         
          irrep a   : virtual orbitals shifted by    0.18591

 ITERATION  ENERGY          1e-ENERGY        2e-ENERGY     RMS[dD(SAO)]   TOL
   8  -2298.2934481977    -19554.599928     9002.3180478    0.274D-03 0.635D-14
                            Exc = -334.405820771     Coul =  9336.72386856    
                              N = 385.99885693    
                            current damping = 0.200
 
          Norm of current diis error: 0.39830    
          max. resid. norm for Fia-block=  2.633D-02 for orbital    193a         
          max. resid. fock norm         =  3.330D-02 for orbital    194a         
          irrep a   : virtual orbitals shifted by    0.15635

 ITERATION  ENERGY          1e-ENERGY        2e-ENERGY     RMS[dD(SAO)]   TOL
   9  -2298.3271913885    -19554.404408     9002.0887851    0.436D-03 0.635D-14
                            Exc = -334.404563221     Coul =  9336.49334835    
                              N = 385.99885406    
                            current damping = 0.050
 
          Norm of current diis error: 0.41165    
          max. resid. norm for Fia-block=  3.325D-02 for orbital    193a         
          max. resid. fock norm         =  3.681D-02 for orbital    194a         
          irrep a   : virtual orbitals shifted by    0.13599

 ITERATION  ENERGY          1e-ENERGY        2e-ENERGY     RMS[dD(SAO)]   TOL
  10  -2298.3650639813    -19554.312387     9001.9588911    0.592D-03 0.635D-14
                            Exc = -334.423618358     Coul =  9336.38250943    
                              N = 385.99884741    
                            current damping = 0.050
 
          Norm of current diis error: 0.48477    
          max. resid. norm for Fia-block=  3.448D-02 for orbital    193a         
          max. resid. fock norm         =  3.632D-02 for orbital    194a         
          irrep a   : virtual orbitals shifted by    0.09326
          mo-orthogonalization: Cholesky decomposition

 ITERATION  ENERGY          1e-ENERGY        2e-ENERGY     RMS[dD(SAO)]   TOL
  11  -2298.3766489606    -19553.679770     9001.3146893    0.499D-03 0.635D-14
                            Exc = -334.403203186     Coul =  9335.71789248    
                              N = 385.99883918    
                            current damping = 0.050
 
          Norm of current diis error: 0.80381    
          max. resid. norm for Fia-block=  2.270D-02 for orbital    193a         
          max. resid. fock norm         =  2.439D-02 for orbital    194a         
          irrep a   : virtual orbitals shifted by    0.05786

 ITERATION  ENERGY          1e-ENERGY        2e-ENERGY     RMS[dD(SAO)]   TOL
  12  -2298.3592372027    -19553.947474     9001.5998053    0.291D-03 0.635D-14
                            Exc = -334.408235809     Coul =  9336.00804107    
                              N = 385.99883419    
                            current damping = 0.100
 
          Norm of current diis error:  1.0967    
          max. resid. norm for Fia-block=  8.296D-03 for orbital    193a         
          max. resid. fock norm         =  1.132D-02 for orbital    193a         
          irrep a   : virtual orbitals shifted by    0.05433

 ITERATION  ENERGY          1e-ENERGY        2e-ENERGY     RMS[dD(SAO)]   TOL
  13  -2298.3492810101    -19553.835160     9001.4974476    0.157D-03 0.635D-14
                            Exc = -334.410603310     Coul =  9335.90805086    
                              N = 385.99882569    
                            current damping = 0.150
 
          Norm of current diis error:  1.1698    
          max. resid. norm for Fia-block=  7.436D-03 for orbital    191a         
          max. resid. fock norm         =  1.918D-02 for orbital   4180a         
          irrep a   : virtual orbitals shifted by    0.07553

 ITERATION  ENERGY          1e-ENERGY        2e-ENERGY     RMS[dD(SAO)]   TOL
  14  -2298.3719657227    -19553.558454     9001.1980561    0.152D-03 0.635D-14
                            Exc = -334.375217519     Coul =  9335.57327360    
                              N = 385.99881484    
                            current damping = 0.050
 
          Norm of current diis error: 0.83726    
          max. resid. norm for Fia-block=  1.742D-02 for orbital    188a         
          max. resid. fock norm         =  4.653D-02 for orbital   4175a         
          irrep a   : virtual orbitals shifted by    0.09042

 ITERATION  ENERGY          1e-ENERGY        2e-ENERGY     RMS[dD(SAO)]   TOL
  15  -2298.3874530850    -19554.018426     9001.6425411    0.228D-03 0.635D-14
                            Exc = -334.442996440     Coul =  9336.08553751    
                              N = 385.99880701    
                            current damping = 0.100
 
          Norm of current diis error: 0.80393    
          max. resid. norm for Fia-block=  1.322D-02 for orbital    171a         
          max. resid. fock norm         =  2.049D-02 for orbital    194a         
          irrep a   : virtual orbitals shifted by    0.08456
          mo-orthogonalization: Cholesky decomposition

 ITERATION  ENERGY          1e-ENERGY        2e-ENERGY     RMS[dD(SAO)]   TOL
  16  -2298.3841595482    -19553.867857     9001.4952653    0.147D-03 0.635D-14
                            Exc = -334.390970827     Coul =  9335.88623614    
                              N = 385.99880764    
                            current damping = 0.150
 
          Norm of current diis error: 0.73378    
          max. resid. norm for Fia-block=  7.080D-03 for orbital    158a         
          max. resid. fock norm         =  2.749D-02 for orbital   4208a         
          irrep a   : virtual orbitals shifted by    0.07954

 ITERATION  ENERGY          1e-ENERGY        2e-ENERGY     RMS[dD(SAO)]   TOL
  17  -2298.3948789594    -19553.627120     9001.2438087    0.877D-04 0.635D-14
                            Exc = -334.406756887     Coul =  9335.65056556    
                              N = 385.99880849    
                            current damping = 0.050
 
          Norm of current diis error: 0.39641    
          max. resid. norm for Fia-block=  4.556D-03 for orbital    184a         
          max. resid. fock norm         =  1.201D-02 for orbital   4175a         
          irrep a   : virtual orbitals shifted by    0.08117

 ITERATION  ENERGY          1e-ENERGY        2e-ENERGY     RMS[dD(SAO)]   TOL
  18  -2298.3999507995    -19554.106596     9001.7182135    0.712D-04 0.635D-14
                            Exc = -334.418606676     Coul =  9336.13682020    
                              N = 385.99880687    
                            current damping = 0.100
 
          Norm of current diis error: 0.18014    
          max. resid. norm for Fia-block=  9.357D-03 for orbital    187a         
          max. resid. fock norm         =  1.892D-02 for orbital   4208a         
          irrep a   : virtual orbitals shifted by    0.08214

 ITERATION  ENERGY          1e-ENERGY        2e-ENERGY     RMS[dD(SAO)]   TOL
  19  -2298.3976783819    -19553.674343     9001.2882332    0.868D-04 0.635D-14
                            Exc = -334.386454864     Coul =  9335.67468804    
                              N = 385.99880624    
                            current damping = 0.150
 
          Norm of current diis error: 0.36083    
          max. resid. norm for Fia-block=  3.479D-03 for orbital    171a         
          max. resid. fock norm         =  1.252D-02 for orbital   4210a         
          irrep a   : virtual orbitals shifted by    0.07906

 ITERATION  ENERGY          1e-ENERGY        2e-ENERGY     RMS[dD(SAO)]   TOL
  20  -2298.3999495364    -19553.565946     9001.1775642    0.365D-04 0.635D-14
                            Exc = -334.399583834     Coul =  9335.57714801    
                              N = 385.99880665    
                            current damping = 0.050
 
          Norm of current diis error: 0.19215    
          max. resid. norm for Fia-block=  1.025D-03 for orbital    187a         
          max. resid. fock norm         =  3.346D-03 for orbital   4208a         
          irrep a   : virtual orbitals shifted by    0.08085
          mo-orthogonalization: Cholesky decomposition

 ITERATION  ENERGY          1e-ENERGY        2e-ENERGY     RMS[dD(SAO)]   TOL
  21  -2298.4006803119    -19553.741992     9001.3528796    0.191D-04 0.635D-14
                            Exc = -334.403878219     Coul =  9335.75675781    
                              N = 385.99880658    
                            current damping = 0.100
 
          Norm of current diis error: 0.11251    
          max. resid. norm for Fia-block=  2.757D-03 for orbital    187a         
          max. resid. fock norm         =  4.784D-03 for orbital   4207a         
          irrep a   : virtual orbitals shifted by    0.08015

 ITERATION  ENERGY          1e-ENERGY        2e-ENERGY     RMS[dD(SAO)]   TOL
  22  -2298.4011534999    -19553.743354     9001.3537689    0.232D-04 0.635D-14
                            Exc = -334.402566082     Coul =  9335.75633499    
                              N = 385.99880674    
                            current damping = 0.050
 
          Norm of current diis error: 0.57031E-01
          max. resid. norm for Fia-block=  1.504D-03 for orbital    187a         
          max. resid. fock norm         =  2.783D-03 for orbital   4175a         
          irrep a   : virtual orbitals shifted by    0.08079

 ITERATION  ENERGY          1e-ENERGY        2e-ENERGY     RMS[dD(SAO)]   TOL
  23  -2298.4011726858    -19553.962239     9001.5726344    0.129D-04 0.635D-14
                            Exc = -334.410483451     Coul =  9335.98311785    
                              N = 385.99880634    
                            current damping = 0.050
 
          Norm of current diis error: 0.53511E-01
          max. resid. norm for Fia-block=  5.341D-04 for orbital    187a         
          max. resid. fock norm         =  1.595D-03 for orbital   4208a         
          irrep a   : virtual orbitals shifted by    0.08070

 ITERATION  ENERGY          1e-ENERGY        2e-ENERGY     RMS[dD(SAO)]   TOL
  24  -2298.4012114733    -19553.800717     9001.4110739    0.757D-05 0.635D-14
                            Exc = -334.407906030     Coul =  9335.81897995    
                              N = 385.99880674    
                            current damping = 0.100
 
          Norm of current diis error: 0.32615E-01
          max. resid. norm for Fia-block=  2.678D-04 for orbital    182a         
          max. resid. fock norm         =  6.225D-04 for orbital   4162a         
          irrep a   : virtual orbitals shifted by    0.07994

 ITERATION  ENERGY          1e-ENERGY        2e-ENERGY     RMS[dD(SAO)]   TOL
  25  -2298.4012340757    -19553.846867     9001.4572008    0.369D-05 0.635D-14
                            Exc = -334.406975630     Coul =  9335.86417642    
                              N = 385.99880660    
                            current damping = 0.150
 
          Norm of current diis error: 0.13656E-01
          max. resid. norm for Fia-block=  8.386D-04 for orbital    187a         
          max. resid. fock norm         =  1.813D-03 for orbital   4208a         
          irrep a   : virtual orbitals shifted by    0.07903
          mo-orthogonalization: Cholesky decomposition

 ITERATION  ENERGY          1e-ENERGY        2e-ENERGY     RMS[dD(SAO)]   TOL
  26  -2298.4012223709    -19553.819533     9001.4298784    0.736D-05 0.635D-14
                            Exc = -334.407627487     Coul =  9335.83750591    
                              N = 385.99880658    
                            current damping = 0.200
 
          Norm of current diis error: 0.25987E-01
          max. resid. norm for Fia-block=  2.521D-04 for orbital     61a         
          max. resid. fock norm         =  1.002D-03 for orbital   4207a         
          irrep a   : virtual orbitals shifted by    0.07815

 ITERATION  ENERGY          1e-ENERGY        2e-ENERGY     RMS[dD(SAO)]   TOL
  27  -2298.4012342710    -19553.839646     9001.4499800    0.246D-05 0.635D-14
                            Exc = -334.406980608     Coul =  9335.85696063    
                              N = 385.99880656    
                            current damping = 0.250
 
          Norm of current diis error: 0.15046E-01
          max. resid. norm for Fia-block=  1.991D-04 for orbital    187a         
          max. resid. fock norm         =  4.853D-04 for orbital   4207a         
          irrep a   : virtual orbitals shifted by    0.07721

 ITERATION  ENERGY          1e-ENERGY        2e-ENERGY     RMS[dD(SAO)]   TOL
  28  -2298.4012410254    -19553.829232     9001.4395594    0.202D-05 0.635D-14
                            Exc = -334.406926585     Coul =  9335.84648597    
                              N = 385.99880659    
                            current damping = 0.300
 
          Norm of current diis error: 0.70576E-02
          max. resid. norm for Fia-block=  1.671D-04 for orbital    187a         
          max. resid. fock norm         =  2.842D-04 for orbital   4208a         
          irrep a   : virtual orbitals shifted by    0.07628

 ITERATION  ENERGY          1e-ENERGY        2e-ENERGY     RMS[dD(SAO)]   TOL
  29  -2298.4012427432    -19553.833203     9001.4435282    0.132D-05 0.635D-14
                            Exc = -334.407158063     Coul =  9335.85068627    
                              N = 385.99880660    
                            current damping = 0.350
 
          Norm of current diis error: 0.49294E-02
          max. resid. norm for Fia-block=  1.246D-04 for orbital    187a         
          max. resid. fock norm         =  1.536D-04 for orbital     30a         
          irrep a   : virtual orbitals shifted by    0.07538

 ITERATION  ENERGY          1e-ENERGY        2e-ENERGY     RMS[dD(SAO)]   TOL
  30  -2298.4012431187    -19553.841143     9001.4514676    0.978D-06 0.635D-14
                            Exc = -334.406997569     Coul =  9335.85846514    
                              N = 385.99880658    
                            current damping = 0.200
 
          Norm of current diis error: 0.33906E-02
          max. resid. norm for Fia-block=  4.597D-05 for orbital    193a         
          max. resid. fock norm         =  1.741D-04 for orbital   4208a         
          irrep a   : virtual orbitals shifted by    0.07811
          mo-orthogonalization: Cholesky decomposition

 ITERATION  ENERGY          1e-ENERGY        2e-ENERGY     RMS[dD(SAO)]   TOL
  31  -2298.4012433406    -19553.832869     9001.4431936    0.592D-06 0.635D-14
                            Exc = -334.406959252     Coul =  9335.85015289    
                              N = 385.99880660    
                            current damping = 0.250
 
          Norm of current diis error: 0.23868E-02
          max. resid. norm for Fia-block=  3.633D-05 for orbital    193a         
          max. resid. fock norm         =  9.147D-05 for orbital   4175a         
          irrep a   : virtual orbitals shifted by    0.07720

 ITERATION  ENERGY          1e-ENERGY        2e-ENERGY     RMS[dD(SAO)]   TOL
  32  -2298.4012435215    -19553.834656     9001.4449805    0.359D-06 0.635D-14
                            Exc = -334.406998275     Coul =  9335.85197882    
                              N = 385.99880660    
                            current damping = 0.300
 
          Norm of current diis error: 0.93723E-03
          max. resid. norm for Fia-block=  4.867D-05 for orbital    187a         
          max. resid. fock norm         =  1.104D-04 for orbital   4210a         
          irrep a   : virtual orbitals shifted by    0.07629

 ITERATION  ENERGY          1e-ENERGY        2e-ENERGY     RMS[dD(SAO)]   TOL
  33  -2298.4012435383    -19553.837387     9001.4477117    0.466D-06 0.635D-14
                            Exc = -334.406999400     Coul =  9335.85471115    
                              N = 385.99880659    
                            current damping = 0.150
 
          Norm of current diis error: 0.14191E-02
          max. resid. norm for Fia-block=  2.514D-05 for orbital    193a         
          max. resid. fock norm         =  5.804D-05 for orbital   4210a         
          irrep a   : virtual orbitals shifted by    0.07902

 ITERATION  ENERGY          1e-ENERGY        2e-ENERGY     RMS[dD(SAO)]   TOL
  34  -2298.4012435927    -19553.835132     9001.4454560    0.217D-06 0.635D-14
                            Exc = -334.407012603     Coul =  9335.85246859    
                              N = 385.99880659    
                            current damping = 0.200
 
          Norm of current diis error: 0.76263E-03
          max. resid. norm for Fia-block=  1.950D-05 for orbital    193a         
          max. resid. fock norm         =  2.474D-05 for orbital   4175a         
          irrep a   : virtual orbitals shifted by    0.07811

 ITERATION  ENERGY          1e-ENERGY        2e-ENERGY     RMS[dD(SAO)]   TOL
  35  -2298.4012436226    -19553.835586     9001.4459109    0.168D-06 0.635D-14
                            Exc = -334.407002644     Coul =  9335.85291351    
                              N = 385.99880659    
                            current damping = 0.250
 
          Norm of current diis error: 0.32990E-03
          max. resid. norm for Fia-block=  1.591D-05 for orbital    193a         
          max. resid. fock norm         =  1.878D-05 for orbital    194a         
          irrep a   : virtual orbitals shifted by    0.07720
          mo-orthogonalization: Cholesky decomposition

 ITERATION  ENERGY          1e-ENERGY        2e-ENERGY     RMS[dD(SAO)]   TOL
  36  -2298.4012436349    -19553.834488     9001.4448125    0.125D-06 0.635D-14
                            Exc = -334.407006897     Coul =  9335.85181938    
                              N = 385.99880660    
                            current damping = 0.300
 
          Norm of current diis error: 0.23846E-03
          max. resid. norm for Fia-block=  1.301D-05 for orbital    193a         
          max. resid. fock norm         =  1.532D-05 for orbital    194a         
          irrep a   : virtual orbitals shifted by    0.07629

 ITERATION  ENERGY          1e-ENERGY        2e-ENERGY     RMS[dD(SAO)]   TOL
  37  -2298.4012436410    -19553.835485     9001.4458095    0.105D-06 0.635D-14
                            Exc = -334.406995853     Coul =  9335.85280538    
                              N = 385.99880660    
                            current damping = 0.350
 
          Norm of current diis error: 0.22645E-03
          max. resid. norm for Fia-block=  1.067D-05 for orbital    193a         
          max. resid. fock norm         =  1.110D-05 for orbital    194a         
          irrep a   : virtual orbitals shifted by    0.07538

 DENSITY CONVERGED !


 ITERATION  ENERGY          1e-ENERGY        2e-ENERGY     RMS[dD(SAO)]   TOL
  38  -2298.4012436461    -19553.835172     9001.4454961    0.786D-07 0.635D-14
                            Exc = -334.407001858     Coul =  9335.85249793    
                              N = 385.99880660    
                            current damping = 0.400
 
          Norm of current diis error: 0.12195E-03
          max. resid. norm for Fia-block=  8.754D-06 for orbital    193a         
          max. resid. fock norm         =  9.094D-06 for orbital    194a         
          irrep a   : virtual orbitals shifted by    0.07446

 DENSITY CONVERGED !


 ITERATION  ENERGY          1e-ENERGY        2e-ENERGY     RMS[dD(SAO)]   TOL
  39  -2298.4012436491    -19553.835069     9001.4453938    0.619D-07 0.635D-14
                            Exc = -334.407001473     Coul =  9335.85239523    
                              N = 385.99880660    
                            current damping = 0.250
 
          Norm of current diis error: 0.78679E-04
          max. resid. norm for Fia-block=  7.128D-06 for orbital    193a         
          max. resid. fock norm         =  7.345D-06 for orbital    194a         
          irrep a   : virtual orbitals shifted by    0.07720

 DENSITY CONVERGED !


 ITERATION  ENERGY          1e-ENERGY        2e-ENERGY     RMS[dD(SAO)]   TOL
  40  -2298.4012436510    -19553.835225     9001.4455498    0.515D-07 0.635D-14
                            Exc = -334.407001036     Coul =  9335.85255084    
                              N = 385.99880660    
                            current damping = 0.300
 
          Norm of current diis error: 0.72087E-04
          max. resid. norm for Fia-block=  5.814D-06 for orbital    193a         
          max. resid. fock norm         =  5.943D-06 for orbital    194a         
          irrep a   : virtual orbitals shifted by    0.07629
          mo-orthogonalization: Cholesky decomposition

 DENSITY CONVERGED !


 ITERATION  ENERGY          1e-ENERGY        2e-ENERGY     RMS[dD(SAO)]   TOL
  41  -2298.4012436520    -19553.835054     9001.4453780    0.411D-07 0.635D-14
                            Exc = -334.407002928     Coul =  9335.85238096    
                              N = 385.99880660    
                            current damping = 0.350
 
          Norm of current diis error: 0.43604E-04
          max. resid. norm for Fia-block=  4.735D-06 for orbital    193a         
          max. resid. fock norm         =  4.839D-06 for orbital    194a         
          irrep a   : virtual orbitals shifted by    0.07538

 DENSITY CONVERGED !


 ITERATION  ENERGY          1e-ENERGY        2e-ENERGY     RMS[dD(SAO)]   TOL
  42  -2298.4012436529    -19553.835159     9001.4454829    0.332D-07 0.635D-14
                            Exc = -334.407000601     Coul =  9335.85248352    
                              N = 385.99880660    
                            current damping = 0.400
 
          Norm of current diis error: 0.41682E-04
          max. resid. norm for Fia-block=  3.885D-06 for orbital    193a         
          max. resid. fock norm         =  4.017D-06 for orbital    194a         
          irrep a   : virtual orbitals shifted by    0.07446

 DENSITY CONVERGED !


 ITERATION  ENERGY          1e-ENERGY        2e-ENERGY     RMS[dD(SAO)]   TOL
  43  -2298.4012436537    -19553.835086     9001.4454107    0.273D-07 0.635D-14
                            Exc = -334.407002440     Coul =  9335.85241315    
                              N = 385.99880660    
                            current damping = 0.450
 
          Norm of current diis error: 0.36195E-04
          max. resid. norm for Fia-block=  3.176D-06 for orbital    193a         
          max. resid. fock norm         =  3.239D-06 for orbital    194a         
          irrep a   : virtual orbitals shifted by    0.07355

 ENERGY & DENSITY CONVERGED !


 ITERATION  ENERGY          1e-ENERGY        2e-ENERGY     RMS[dD(SAO)]   TOL
  44  -2298.4004213864    -19553.835098     9001.4462447    0.219D-07 0.635D-14
                            Exc = -334.406180035     Coul =  9335.85242477    
                              N = 386.00001378    
                            current damping = 0.500
 
          Norm of current diis error: 0.27055E-04
          max. resid. norm for Fia-block=  2.583D-06 for orbital    193a         
          max. resid. fock norm         =  2.606D-06 for orbital    194a         

 End of SCF iterations

   convergence criteria satisfied after   44 iterations


                  ------------------------------------------ 
                 |  total energy      =  -2298.40042138642  |
                  ------------------------------------------ 
                 :  kinetic energy    =   2287.97683528010  :
                 :  potential energy  =  -4586.37725666652  :
                 :  virial theorem    =      1.99546485199  :
                 :  wavefunction norm =      1.00000000000  :
                  .......................................... 


 orbitals $scfmo  will be written to file mos

    irrep                189a        190a        191a        192a        193a   
 eigenvalues H         -0.22649    -0.22561    -0.21582    -0.20502    -0.19202
            eV          -6.1631     -6.1393     -5.8727     -5.5790     -5.2251
 occupation              2.0000      2.0000      2.0000      2.0000      2.0000 

    irrep                194a        195a        196a        197a        198a   
 eigenvalues H         -0.17378    -0.06829    -0.06812    -0.06176    -0.05971
            eV          -4.7287     -1.8583     -1.8536     -1.6805     -1.6249
 
 
 ! grave: sending quit signal to master process
 
 
 
 
 ==============================================================================
                           electrostatic moments
 ==============================================================================

 reference point for electrostatic moments:    0.00000   0.00000   0.00000

 
              nuc           elec       ->  total
 ------------------------------------------------------------------------------
                          charge      
 ------------------------------------------------------------------------------
         386.000000    -386.000000       0.000000
 
 ------------------------------------------------------------------------------
                       dipole moment  
 ------------------------------------------------------------------------------
   x      -8.024382       7.937758      -0.086624
   y      -0.932485       1.443343       0.510858
   z      -0.104634       0.114125       0.009491
 
   | dipole moment | =     0.5182 a.u. =     1.3172 debye 
 
 ------------------------------------------------------------------------------
                     quadrupole moment
 ------------------------------------------------------------------------------
  xx   14542.637623  -14784.654495    -242.016873
  yy    7517.197596   -7753.147148    -235.949552
  zz    4504.199252   -4773.255573    -269.056321
  xy     -48.564685      53.918256       5.353571
  xz      63.696612     -63.348500       0.348112
  yz      58.976633     -58.155957       0.820676
 
     1/3  trace=    -249.007582
     anisotropy=      31.943190
 
 ==============================================================================
 

    ridft profiling
  --------------------------------------------------------------------
             module   cpu total (s)       %  wall total (s)       %

               RIDFT         31215.6  100.00         31401.5  100.00
         Ridft_b_scf           227.8    0.73           228.0    0.73
        b_scf_prelim             0.0    0.00             0.0    0.00
        b_scf_molinp             0.0    0.00             0.0    0.00
         b_scf_init0             0.0    0.00             0.0    0.00
        b_scf_auxbas             0.0    0.00             0.0    0.00
      b_scf_symmetry             0.0    0.00             0.0    0.00
         b_scf_cosmo             0.0    0.00             0.0    0.00
        b_scf_params            35.4    0.11            35.5    0.11
          b_scf_ri-j            74.7    0.24            74.8    0.24
    b_scf_ri-j_auxpq            74.6    0.24            74.6    0.24
     ri-j_auxpq_chol             3.5    0.01             3.5    0.01
         b_scf_1elec            13.0    0.04            13.0    0.04
       b_scf_moinput           104.6    0.33           104.7    0.33
     moinput_orthmos           103.4    0.33           103.6    0.33
    b_scf_dft-dstmax             0.0    0.00             0.0    0.00
           Ridft_scf         30984.9   99.26         31170.5   99.26
          Scf_b_loop             0.0    0.00             0.0    0.00
                noga             0.0    0.00             0.0    0.00
            Scf_loop         30972.4   99.22         31154.6   99.21
     scf_loop_mkdmat            82.7    0.26            82.8    0.26
       scf_loop_ri-j          5888.8   18.86          5892.4   18.76
      parlp1.bc.dens             6.4    0.02             6.4    0.02
        parlp1.gs.gp             0.2    0.00             0.2    0.00
        parlp2.bc.gq             0.0    0.00             0.0    0.00
        scf_loop_dft         21532.4   68.98         21564.6   68.67
      pardft.bc.dens             0.0    0.00             0.0    0.00
        dft_grid_con             5.9    0.02             5.9    0.02
          dft_xcmrhf         21496.7   68.87         21528.9   68.56
          dft_getval           188.2    0.60           188.3    0.60
          funct2 dst             2.2    0.01             2.1    0.01
      funct2 f2loop1            31.7    0.10            31.6    0.10
      funct2 f2loop2            77.8    0.25            78.1    0.25
          funct2 s+c            73.9    0.24            74.0    0.24
        funct2 cmf_2            64.9    0.21            65.1    0.21
          dft_mkdens          9198.7   29.47          9212.9   29.34
        dft_mgga-fun             4.6    0.01             4.5    0.01
          dft_mkfock         12102.7   38.77         12120.7   38.60
     pardft.red.fock           623.8    2.00           624.8    1.99
     scf_loop_energy             0.7    0.00             0.7    0.00
     scf_loop_mkfock             1.2    0.00             1.2    0.00
       scf_loop_diis          1377.4    4.41          1378.9    4.39
       scf_loop_diag          1272.6    4.08          1274.6    4.06
         diag_tritrn           502.1    1.61           502.9    1.60
          diag_rdiag           766.1    2.45           767.3    2.44
     scf_loop_modump           479.8    1.54           622.0    1.98
      scf_loop_ortho           318.7    1.02           319.2    1.02
          Scf_a_loop            12.5    0.04            15.9    0.05
         Ridft_a_scf             3.0    0.01             3.0    0.01
         a_scf_fanal             2.9    0.01             2.9    0.01
 


    ------------------------------------------------------------------------
         total  cpu-time :  8 hours 40 minutes and 32 seconds
         total wall-time :  8 hours 43 minutes and 38 seconds
    ------------------------------------------------------------------------


   ****  ridft : all done  ****


    2016-02-17 02:42:14.862 

