 operating system is UNIX !
 hostname is         c-8-35.local

 ridft (c-8-35.local) : TURBOMOLE V7.0.2( ) 8 Jan 2016 at 10:54:38
 Copyright (C) 2016 TURBOMOLE GmbH, Karlsruhe


    2018-02-05 11:29:22.705 



                                  r i d f t

                        DFT program with RI approximation 
                                for coulomb part 




                                                 
                                 References:     
                                                 
          TURBOMOLE:                             
              R. Ahlrichs, M. Baer, M. Haeser, H. Horn, and
              C. Koelmel
              Electronic structure calculations on workstation
              computers: the program system TURBOMOLE
              Chem. Phys. Lett. 162: 165 (1989)
          Density Functional:                              
              O. Treutler and R. Ahlrichs                      
              Efficient Molecular Numerical Integration Schemes
              J. Chem. Phys. 102: 346 (1995)                   
          Parallel Version:                                
              Performance of parallel TURBOMOLE for Density    
              Functional Calculations                          
              M. v. Arnim and R. Ahlrichs                      
              J. Comp. Chem. 19: 1746 (1998)                   
          RI-J Method:                                     
              Auxiliary Basis Sets to approximate Coulomb      
              Potentials                                       
              Chem. Phys. Lett. 240: 283 (1995)                
              K. Eichkorn, O. Treutler, H. Oehm, M. Haeser     
              and R. Ahlrichs                                  
              Chem. Phys. Lett. 242: 652 (1995)                
                                                           
              Auxiliary Basis Sets for Main Row Atoms and their
              Use to approximate Coulomb Potentials            
              K. Eichkorn, F. Weigend, O. Treutler and         
              R. Ahlrichs                                      
              Theo. Chem. Acc. 97: 119 (1997)                   
                                                           
              Accurate Coulomb-fitting basis sets for H to Rn 
              F. Weigend                                        
              Phys. Chem. Chem. Phys. 8: 1057 (2006)            
                                                           
          Multipole accelerated RI-J (MARI-J):             
              Fast evaluation of the Coulomb potential for     
              electron densities using multipole accelerated   
              resolution of identity approximation             
              M. Sierka, A. Hogekamp and R. Ahlrichs           
              J. Chem. Phys. 118: 9136 (2003)                  
          RI-JK Method:                                     
              A fully direct RI-HF algorithm: Implementation,
              optimised auxiliary basis sets, demonstration of
              accuracy and efficiency                         
              F. Weigend                                      
              Phys. Chem. Chem. Phys. 4: 4285 (2002)           
          Two-component HF and DFT with spin-orbit coupling:  
              Self-consistent treatment of spin-orbit         
              interactions with efficient Hartree-Fock and    
              density functional methods                      
              M. K. Armbruster, F. Weigend, C. van Wüllen and 
              W. Klopper                                      
              Phys. Chem. Chem. Phys. 10: 1748 (2008)         
          Relativistic all-electron 2c calculations           
              An efficient implementation of two-component    
              relativistic exact-decoupling methods for large 
              molecules                                       
              D. Peng, N. Middendorf, F. Weigend, M. Reiher   
              J. Chem. Phys. 138, 184105 (2013)               
                                         


 


              +--------------------------------------------------+
              |      general information about current run       |
              +--------------------------------------------------+

 

 DENSITY CONVERGENCE CHECK SWITCHED ON !
 SCF CONVERGENCE IF RMS(delta[D]) <     0.1000000000E-06

 A HF calculation using the RI-JK approximation will be carried out.
 Allocatable memory for RI due to $ricore (MB):        5000


              +--------------------------------------------------+
              | Atomic coordinate, charge and isotop information |
              +--------------------------------------------------+

                    atomic coordinates            atom    charge  isotop
         11.64638216   -1.85382134    1.95586655    c      6.000     0
         10.94340404   -1.85382134    4.43896669    c      6.000     0
          8.33747170   -1.79335010    5.17029070    c      6.000     0
          6.45908392   -1.78012202    3.22954196    c      6.000     0
          7.18851821   -1.80279873    0.64439661    c      6.000     0
          9.80578890   -1.78957065   -0.03212534    c      6.000     0
          5.31768934   -1.71776105   -1.27556514    c      6.000     0
         10.48042113   -1.68752544   -2.59081453    c      6.000     0
          8.66061487   -1.57603159   -4.51455573    c      6.000     0
          6.03956472   -1.61193639   -3.85504131    c      6.000     0
          9.32579847   -1.42296378   -7.13749560    c      6.000     0
          7.52299974   -1.31524939   -8.97808886    c      6.000     0
          4.88116260   -1.37572062   -8.37715595    c      6.000     0
          4.16306667   -1.54579598   -5.77689279    c      6.000     0
          1.56280351   -1.60626721   -5.11926809    c      6.000     0
          0.83714868   -1.73287886   -2.53034329    c      6.000     0
          2.70608782   -1.72343023   -0.61227127    c      6.000     0
          3.86071049   -1.76122476    3.89472556    c      6.000     0
          1.98232271   -1.75555558    1.96909463    c      6.000     0
         -0.61416099   -1.78957065    2.62860905    c      6.000     0
         -2.48498986   -1.83870353    0.71242675    c      6.000     0
         -1.76122476   -1.77445284   -1.86704942    c      6.000     0
         -0.31369454   -1.56280351   -7.03545039    c      6.000     0
         -2.91584742   -1.66484872   -6.37404625    c      6.000     0
         -3.63961253   -1.80657818   -3.79645980    c      6.000     0
          3.00088510   -1.29257267  -10.23853619    c      6.000     0
          0.42329865   -1.39461789   -9.63004437    c      6.000     0
         -4.81124273   -1.63461310   -8.29967718    c      6.000     0
         -7.36237301   -1.76878366   -7.60803741    c      6.000     0
         -8.11637374   -1.92185148   -5.07580439    c      6.000     0
         -6.23798596   -1.90862339   -3.13127620    c      6.000     0
         -5.09470165   -1.94830764    1.37572062    c      6.000     0
         -6.96364080   -2.03145559   -0.54613085    c      6.000     0
         -1.51933981   -1.35304391  -11.51977051    c      6.000     0
         -4.01566803   -1.47398638  -10.88482253    c      6.000     0
         -9.57902177   -2.15995697    0.13228083    c      6.000     0
        -11.41772529   -2.19775149   -1.85571106    c      6.000     0
        -10.72041635   -2.06925012   -4.34070093    c      6.000     0
        -10.25365400   -2.19208231    2.69285974    c      6.000     0
         -8.43951691   -2.05224258    4.61849067    c      6.000     0
         -5.81846676   -1.93507956    3.95897625    c      6.000     0
         -3.94196871   -1.82358572    5.88082773    c      6.000     0
         -1.34359528   -1.73665832    5.21942358    c      6.000     0
          0.53101304   -1.67240763    7.13560588    c      6.000     0
          3.13316593   -1.67618708    6.47231201    c      6.000     0
          5.02667151   -1.64217201    8.39794293    c      6.000     0
          7.58158125   -1.71587133    7.70441344    c      6.000     0
          4.22920709   -1.54201652   10.98497801    c      6.000     0
         -0.20975960   -1.58925968    9.73397931    c      6.000     0
          1.73098914   -1.50989118   11.62370544    c      6.000     0
         -4.66573382   -1.73665832    8.48487034    c      6.000     0
         -2.78734605   -1.60626721   10.34814030    c      6.000     0
         -9.10847996   -1.97476381    7.24332027    c      6.000     0
         -7.30757096   -1.81035764    9.08580325    c      6.000     0
         13.63626377   -1.88783641    1.44186104    h      1.000     0
         12.37203699   -1.88405695    5.91673252    h      1.000     0
         12.47408220   -1.68185626   -3.10104058    h      1.000     0
         11.31756981   -1.39272816   -7.63638330    h      1.000     0
          8.06913059   -1.19052746  -10.95663212    h      1.000     0
          3.55457486   -1.16407130  -12.21518972    h      1.000     0
         -8.79856487   -1.76311448   -9.08013407    h      1.000     0
         -0.95809115   -1.22832199  -13.49264459    h      1.000     0
         -5.45752907   -1.44564049  -12.34936028    h      1.000     0
        -13.40571719   -2.32436314   -1.34548501    h      1.000     0
        -12.15093903   -2.10137546   -5.81657704    h      1.000     0
        -12.24542534   -2.28656862    3.19930634    h      1.000     0
          9.01588338   -1.69508434    9.17651010    h      1.000     0
          5.67295785   -1.48910419   12.44762604    h      1.000     0
          1.16785075   -1.43241241   13.59846925    h      1.000     0
         -3.34292553   -1.54012680   12.32668356    h      1.000     0
        -11.09836158   -2.05413231    7.74598742    h      1.000     0
         -7.85748126   -1.74988640   11.06623623    h      1.000     0
 
       center of nuclear mass  :    0.10986503   -1.73042417    0.05065956
       center of nuclear charge:    0.10984724   -1.72920992    0.05068002

              +--------------------------------------------------+
              |               basis set information              |
              +--------------------------------------------------+

              we will work with the 1s 3p 5d 7f 9g ... basis set
              ...i.e. with spherical basis functions...

   type   atoms  prim   cont   basis
   ---------------------------------------------------------------------------
    c       54     77     57   def2-QZVP   [7s4p3d2f1g|15s8p3d2f1g]
    h       18     33     30   def2-QZVP   [4s3p2d1f|7s3p2d1f]
   ---------------------------------------------------------------------------
   total:   72   4752   3618
   ---------------------------------------------------------------------------

   total number of primitive shells          :   42
   total number of contracted shells         : 1098
   total number of cartesian basis functions : 4518
   total number of SCF-basis functions       : 3618


 integral neglect threshold       :  0.74E-14
 integral storage threshold THIZE :  0.10E-04
 integral storage threshold THIME :         5

 RI-JK AUXILIARY BASIS SET information:

              we will work with the 1s 3p 5d 7f 9g ... basis set
              ...i.e. with spherical basis functions...

   type   atoms  prim   cont   basis
   ---------------------------------------------------------------------------
    c       54     97     75   def2-QZVP   [10s8p5d1f1g|14s10p6d2f1g]
    h       18     20     18   def2-QZVP   [2s2p2d|4s2p2d]
   ---------------------------------------------------------------------------
   total:   72   5598   4374
   ---------------------------------------------------------------------------

   total number of primitive shells          :   41
   total number of contracted shells         : 1458
   total number of cartesian basis functions : 5166
   total number of SCF-basis functions       : 4374


 symmetry group of the molecule :   c1 

 the group has the following generators :
   c1(z)

    1 symmetry operations found

 there are 1 real representations :   a   

 maximum number of shells which are related by symmetry :  1


    mo occupation :
   irrep   mo's   occupied
    a     3618      171
 
 number of basis functions   :         3618
 number of occupied orbitals :          171
 

 biggest AO integral is expected to be     5.262544080
  
           ------------------------
               RI-JK - INFORMATION
           ------------------------
 Contributions to RI integral batches: 
  neglected integral batches:      356905
  direct contribution:             246446
  memory contribution:           0
 Memory core needed for (P|Q) and Cholesky    146 MByte
 Memory core minimum needed except of (P|Q)     7 MByte
 Total minimum memory core needed (sum)       153 MByte
  
 ****************************************
 Memory allocated for RI-J   153 MByte
 ****************************************
                                            
 total memory allocated for calculation of  (Q|P)**(-1/2) :  220 MiB

  forming (P|Q)**(-1/2) 
 eigenvalues of original matrix 
 smallest =0.3268773693985E-09  largest = 98.37703562574    
  The symmetry information takes            1  MB

          ------------------------
          nuclear repulsion energy  :   6437.58245189    
          ------------------------

 
          -----------------
          -S,T+V- integrals
          -----------------

 1e-integrals will be neglected if expon. factor < 0.739699E-15
 
   Difference densities algorithm switched on.
   The maximal number of linear combinations of
   difference densities is          20 .

 automatic virtual orbital shift switched on 
      shift if e(lumo)-e(homo) < 0.10000000    


 DIIS switched on: error vector is FDS-SDF
 Max. Iterations for DIIS is     :   5
 DIIS matrix (see manual) 
    Scaling factor of diagonals  :  1.200
    threshold for scaling factor :  0.000

 scf convergence criterion : increment of total energy < .1000000D-08
                  and increment of one-electron energy < .1000000D-05

  MOs are in ASCII format !


 reading orbital data $scfmo  from file mos . 

 orbital characterization : scfconv=9
 

 DSCF restart information will be dumped onto file mos


 Starting SCF iterations

 
 BLOCKING OF MOS FOR RI-K
 
 
 occupied MOs partitioned into blocks of maximum length 33
 this requires 4979 MiB core memory.
 
            MULTIPLE PASS Statistics 
 ----------------------------------------------------
  pass       irrep     lambda      batch : MO  to  MO
 ----------------------------------------------------
   1       1  ->  1    1  -> 33             1  ->  33
   2       1  ->  1   34  -> 66            34  ->  66
   3       1  ->  1   67  -> 99            67  ->  99
   4       1  ->  1  100  ->132           100  -> 132
   5       1  ->  1  133  ->165           133  -> 165
   6       1  ->  1  166  ->171           166  -> 171



 ENERGY & DENSITY CONVERGED !


 ITERATION  ENERGY          1e-ENERGY        2e-ENERGY     RMS[dD(SAO)]   TOL
   1  -2055.9562329838    -15617.868139     7124.3294545    0.000D+00 0.738D-14
                           RI-K = -286.620248536     Coul =  7410.94970304    
                            current damping = 0.700
 
          max. resid. norm for Fia-block=  1.999D-01 for orbital     34a         
          max. resid. fock norm         =  6.187D-01 for orbital   3564a         

 End of SCF iterations

   convergence criteria satisfied after    1 iterations


                  ------------------------------------------ 
                 |  total energy      =  -2055.95623298376  |
                  ------------------------------------------ 
                 :  kinetic energy    =   2057.96202273866  :
                 :  potential energy  =  -4113.91825572242  :
                 :  virial theorem    =      2.00097559944  :
                 :  wavefunction norm =      1.00000000000  :
                  .......................................... 


 orbitals $scfmo  will be written to file mos

    irrep                167a        168a        169a        170a        171a   
 eigenvalues H         -0.27948    -0.26613    -0.26603    -0.20430    -0.20410
            eV          -7.6050     -7.2419     -7.2390     -5.5593     -5.5538
 occupation              2.0000      2.0000      2.0000      2.0000      2.0000 

    irrep                172a        173a        174a        175a        176a   
 eigenvalues H          0.02503     0.02517     0.08070     0.08075     0.10062
            eV           0.6810      0.6848      2.1959      2.1972      2.7381
 
 
 
 
 ==============================================================================
                           electrostatic moments
 ==============================================================================

 reference point for electrostatic moments:    0.00000   0.00000   0.00000

 
              nuc           elec       ->  total
 ------------------------------------------------------------------------------
                          charge      
 ------------------------------------------------------------------------------
         342.000000    -342.000000       0.000000
 
 ------------------------------------------------------------------------------
                       dipole moment  
 ------------------------------------------------------------------------------
   x      37.567756     -37.563543       0.004213
   y    -591.389793     591.422575       0.032782
   z      17.332568     -17.331687       0.000881
 
   | dipole moment | =     0.0331 a.u. =     0.0840 debye 
 
 ------------------------------------------------------------------------------
                     quadrupole moment
 ------------------------------------------------------------------------------
  xx   14425.264811  -14618.868966    -193.604156
  yy    1039.233718   -1271.729600    -232.495882
  zz   14413.076038  -14606.656944    -193.580906
  xy     197.378415    -196.623228       0.755187
  xz       6.175775      -6.132088       0.043687
  yz    -194.092885     193.653612      -0.439274
 
     1/3  trace=    -206.560315
     anisotropy=      38.932848
 
 ==============================================================================
 
 


    ------------------------------------------------------------------------
         total  cpu-time :  3 hours 53 minutes and 23 seconds
         total wall-time :  3 hours 53 minutes and 14 seconds
    ------------------------------------------------------------------------


   ****  ridft : all done  ****


    2018-02-05 15:22:37.049 

