           Doing BLAS/Lapack in the master proc. with  8 CPUs.
           SMPCPUS    set: Shared-memory Parallelization with   8 CPUs.

           SMP Parallelization Reference:
           C. van Wullen, J. Comput. Chem. 32 (2011) 1195--1201
 operating system is UNIX !

 ridft (c-18-131.gp.local) : TURBOMOLE V7.2 ( 21454 ) 4 Oct 2017 at 12:48:15
 Copyright (C) 2017 TURBOMOLE GmbH, Karlsruhe


    2018-04-28 21:00:15.533 



                                  r i d f t

                        DFT program with RI approximation 
                                for coulomb part 




                                                 
                                 References:     
                                                 
          TURBOMOLE:                             
              R. Ahlrichs, M. Baer, M. Haeser, H. Horn, and
              C. Koelmel
              Electronic structure calculations on workstation
              computers: the program system TURBOMOLE
              Chem. Phys. Lett. 162: 165 (1989)
          Density Functional:                              
              O. Treutler and R. Ahlrichs                      
              Efficient Molecular Numerical Integration Schemes
              J. Chem. Phys. 102: 346 (1995)                   
          Parallel Version:                                
              Performance of parallel TURBOMOLE for Density    
              Functional Calculations                          
              M. v. Arnim and R. Ahlrichs                      
              J. Comp. Chem. 19: 1746 (1998)                   
          RI-J Method:                                     
              Auxiliary Basis Sets to approximate Coulomb      
              Potentials                                       
              Chem. Phys. Lett. 240: 283 (1995)                
              K. Eichkorn, O. Treutler, H. Oehm, M. Haeser     
              and R. Ahlrichs                                  
              Chem. Phys. Lett. 242: 652 (1995)                
                                                           
              Auxiliary Basis Sets for Main Row Atoms and their
              Use to approximate Coulomb Potentials            
              K. Eichkorn, F. Weigend, O. Treutler and         
              R. Ahlrichs                                      
              Theo. Chem. Acc. 97: 119 (1997)                   
                                                           
              Accurate Coulomb-fitting basis sets for H to Rn 
              F. Weigend                                        
              Phys. Chem. Chem. Phys. 8: 1057 (2006)            
                                                           
          Multipole accelerated RI-J (MARI-J):             
              Fast evaluation of the Coulomb potential for     
              electron densities using multipole accelerated   
              resolution of identity approximation             
              M. Sierka, A. Hogekamp and R. Ahlrichs           
              J. Chem. Phys. 118: 9136 (2003)                  
          RI-JK Method:                                     
              A fully direct RI-HF algorithm: Implementation,
              optimised auxiliary basis sets, demonstration of
              accuracy and efficiency                         
              F. Weigend                                      
              Phys. Chem. Chem. Phys. 4: 4285 (2002)           
          Two-component HF and DFT with spin-orbit coupling:  
              Self-consistent treatment of spin-orbit         
              interactions with efficient Hartree-Fock and    
              density functional methods                      
              M. K. Armbruster, F. Weigend, C. van Wüllen and 
              W. Klopper                                      
              Phys. Chem. Chem. Phys. 10: 1748 (2008)         
          Relativistic all-electron 2c calculations           
              An efficient implementation of two-component    
              relativistic exact-decoupling methods for large 
              molecules                                       
              D. Peng, N. Middendorf, F. Weigend, M. Reiher   
              J. Chem. Phys. 138, 184105 (2013)               
                                         




              +--------------------------------------------------+
              |      general information about current run       |
              +--------------------------------------------------+

 

 DENSITY CONVERGENCE CHECK SWITCHED ON !
 SCF CONVERGENCE IF RMS(delta[D]) <     0.1000000000E-06

 TPSS meta-GGA functional
 exchange:    LDA + TPSS
 correlation: LDA (PW) + TPSS
 A DFT calculation using the RI-J approximation will be carried out.
 Allocatable memory for RI due to $ricore (MB):                  5000


              +--------------------------------------------------+
              | Atomic coordinate, charge and isotop information |
              +--------------------------------------------------+

                    atomic coordinates            atom    charge  isotop
          3.95570402    1.73346725    0.40080572    o      8.000     0
          2.41082001    0.79564817    0.07359415    h      1.000     0
          5.05533840    1.24497707   -0.95175838    h      1.000     0
 
       center of nuclear mass  :    3.93079202    1.65366432    0.30682118
       center of nuclear charge:    3.91117906    1.59083633    0.23282815

              +--------------------------------------------------+
              |               basis set information              |
              +--------------------------------------------------+

              we will work with the 1s 3p 5d 7f 9g ... basis set
              ...i.e. with spherical basis functions...

   type   atoms  prim   cont   basis
   ---------------------------------------------------------------------------
    o        1     77     55   cc-pVQZ   [5s4p3d2f1g|21s6p3d2f1g]
    h        2     32     30   cc-pVQZ   [4s3p2d1f|6s3p2d1f]
   ---------------------------------------------------------------------------
   total:    3    141    115
   ---------------------------------------------------------------------------

   total number of primitive shells          :   45
   total number of contracted shells         :   35
   total number of cartesian basis functions :  140
   total number of SCF-basis functions       :  115


 integral neglect threshold       :  0.24E-12
 integral storage threshold THIZE :  0.10E-04
 integral storage threshold THIME :         5

 RI-J AUXILIARY BASIS SET information:

              we will work with the 1s 3p 5d 7f 9g ... basis set
              ...i.e. with spherical basis functions...

   type   atoms  prim   cont   basis
   ---------------------------------------------------------------------------
    o        1     70     49   cc-pVQZ   [6s4p3d1f1g|12s5p4d2f1g]
    h        2     16     11   cc-pVQZ   [3s1p1d|5s2p1d]
   ---------------------------------------------------------------------------
   total:    3    102     71
   ---------------------------------------------------------------------------

   total number of primitive shells          :   32
   total number of contracted shells         :   25
   total number of cartesian basis functions :   85
   total number of SCF-basis functions       :   71


 symmetry group of the molecule :   c1 

 the group has the following generators :
   c1(z)

    1 symmetry operations found

 there are 1 real representations :   a   

 maximum number of shells which are related by symmetry :  1


    mo occupation :
   irrep   mo's   occupied
    a      115        5
 
 number of basis functions   :                    115
 number of occupied orbitals :                      5
 
  
           ------------------
           density functional
           ------------------
 TPSS meta-GGA functional
 exchange:    LDA + TPSS
 correlation: LDA (PW) + TPSS

 iterations will be done with small grid
  
 spherical integration : Lebedev's spherical grid
 spherical gridsize    :                     5
    i.e. gridpoints    :                   590
 value for diffuse not defined
 radial integration    : Chebyshev 2nd kind (scaling 3)
 radial gridsize       :                     8
 integration cells     :                     3
 partition function    : becke
 partition sharpness   :                     3
  

 biggest AO integral is expected to be     4.785886462
  
           ------------------------
               RI-J - INFORMATION
           ------------------------
 Contributions to RI integral batches: 
  neglected integral batches:                     0
  direct contribution:                            0
  memory contribution:                   630
 Memory core needed for (P|Q) and Cholesky      1 MByte
 Memory core minimum needed except of (P|Q)     1 MByte
 Total minimum memory core needed (sum)         1 MByte
  
 ****************************************
 Memory allocated for RI-J     7 MByte
 ****************************************
                                            

          ------------------------
          nuclear repulsion energy  :   9.12312495286    
          ------------------------


         -----------------
         -S,T+V- integrals
         -----------------

 1e-integrals will be neglected if expon. factor < 0.238712E-13
 Difference densities >>NOT<< switched on in parallel ridft!

 DIIS switched on: error vector is FDS-SDF
 Max. Iterations for DIIS is     :   4
 DIIS matrix (see manual) 
    Scaling factor of diagonals  :  1.200
    threshold for scaling factor :  0.000

 scf convergence criterion : increment of total energy < .1000000D-08
                  and increment of one-electron energy < .1000000D-05

  MOs are in ASCII format !


 automatic virtual orbital shift switched on 
      shift if e(lumo)-e(homo) < 0.10000000    


 reading orbital data $scfmo  from file mos
 orbital characterization : expanded
 mo provided and orthogonalized by Cholesky decomposition

 DSCF restart information will be dumped onto file mos


 Starting SCF iterations

          Overall gridpoints after grid construction =         13758

 ITERATION  ENERGY          1e-ENERGY        2e-ENERGY     RMS[dD(SAO)]   TOL
   1  -76.220384425084    -124.32138732     38.977877943    0.000D+00 0.238D-12
                            Exc = -9.50882722153     Coul =  48.4867051649    
                              N = 9.9999994921    
                            current damping = 0.700
 
          max. resid. norm for Fia-block=  3.217D-01 for orbital      4a         
          max. resid. fock norm         =  1.356D+01 for orbital    110a         

 ITERATION  ENERGY          1e-ENERGY        2e-ENERGY     RMS[dD(SAO)]   TOL
   2  -76.423397292041    -123.14086549     37.594343244    0.588D-02 0.238D-12
                            Exc = -9.33687677496     Coul =  46.9312200193    
                              N = 9.9999994768    
                            current damping = 0.650
 
          Norm of current diis error:  1.2287    
          max. resid. norm for Fia-block=  1.389D-01 for orbital      1a         
          max. resid. fock norm         =  1.412D-01 for orbital      1a         

 ITERATION  ENERGY          1e-ENERGY        2e-ENERGY     RMS[dD(SAO)]   TOL
   3  -76.459094044625    -123.24465159     37.662432596    0.359D-02 0.238D-12
                            Exc = -9.36550503586     Coul =  47.0279376314    
                              N = 9.9999993973    
                            current damping = 0.600
 
          Norm of current diis error: 0.54874    
          max. resid. norm for Fia-block=  5.563D-02 for orbital      1a         
          max. resid. fock norm         =  5.733D-02 for orbital      1a         

 ITERATION  ENERGY          1e-ENERGY        2e-ENERGY     RMS[dD(SAO)]   TOL
   4  -76.468500421269    -122.94600454     37.354379165    0.177D-02 0.238D-12
                            Exc = -9.33193045806     Coul =  46.6863096229    
                              N = 9.9999993613    
                            current damping = 0.650
 
          Norm of current diis error: 0.19182    
          max. resid. norm for Fia-block=  2.088D-02 for orbital      1a         
          max. resid. fock norm         =  3.131D-02 for orbital     90a         

 ITERATION  ENERGY          1e-ENERGY        2e-ENERGY     RMS[dD(SAO)]   TOL
   5  -76.469862494279    -123.02369811     37.430710666    0.615D-03 0.238D-12
                            Exc = -9.34614226836     Coul =  46.7768529341    
                              N = 9.9999993587    
                            current damping = 0.700
 
          Norm of current diis error: 0.81321E-01
          max. resid. norm for Fia-block=  8.375D-03 for orbital      1a         
          max. resid. fock norm         =  9.178D-03 for orbital    107a         
          mo-orthogonalization: Cholesky decomposition

 ITERATION  ENERGY          1e-ENERGY        2e-ENERGY     RMS[dD(SAO)]   TOL
   6  -76.470132868902    -122.97991795     37.386660127    0.273D-03 0.238D-12
                            Exc = -9.34143531904     Coul =  46.7280954457    
                              N = 9.9999993512    
                            current damping = 0.750
 
          Norm of current diis error: 0.31220E-01
          max. resid. norm for Fia-block=  3.438D-03 for orbital      1a         
          max. resid. fock norm         =  5.328D-03 for orbital     90a         

 ITERATION  ENERGY          1e-ENERGY        2e-ENERGY     RMS[dD(SAO)]   TOL
   7  -76.470173975372    -122.98487885     37.391579920    0.973D-04 0.238D-12
                            Exc = -9.34266817388     Coul =  46.7342480942    
                              N = 9.9999993501    
                            current damping = 0.800
 
          Norm of current diis error: 0.13469E-01
          max. resid. norm for Fia-block=  1.467D-03 for orbital      1a         
          max. resid. fock norm         =  2.098D-03 for orbital    107a         

 ITERATION  ENERGY          1e-ENERGY        2e-ENERGY     RMS[dD(SAO)]   TOL
   8  -76.470181984755    -122.98251307     37.389206134    0.425D-04 0.238D-12
                            Exc = -9.34257661811     Coul =  46.7317827522    
                              N = 9.9999993493    
                            current damping = 0.850
 
          Norm of current diis error: 0.59690E-02
          max. resid. norm for Fia-block=  6.535D-04 for orbital      1a         
          max. resid. fock norm         =  1.050D-03 for orbital     90a         

 ITERATION  ENERGY          1e-ENERGY        2e-ENERGY     RMS[dD(SAO)]   TOL
   9  -76.470183499589    -122.98323989     37.389931441    0.176D-04 0.238D-12
                            Exc = -9.34277756281     Coul =  46.7327090038    
                              N = 9.9999993491    
                            current damping = 0.900
 
          Norm of current diis error: 0.27723E-02
          max. resid. norm for Fia-block=  3.014D-04 for orbital      1a         
          max. resid. fock norm         =  4.282D-04 for orbital    107a         

 ITERATION  ENERGY          1e-ENERGY        2e-ENERGY     RMS[dD(SAO)]   TOL
  10  -76.470183833453    -122.98216626     37.388857478    0.856D-05 0.238D-12
                            Exc = -9.34267522392     Coul =  46.7315327022    
                              N = 9.9999993488    
                            current damping = 0.950
 
          Norm of current diis error: 0.13533E-02
          max. resid. norm for Fia-block=  1.484D-04 for orbital      2a         
          max. resid. fock norm         =  2.681D-04 for orbital     90a         
          mo-orthogonalization: Cholesky decomposition

 ITERATION  ENERGY          1e-ENERGY        2e-ENERGY     RMS[dD(SAO)]   TOL
  11  -76.470183902635    -122.98276680     37.389457948    0.348D-05 0.238D-12
                            Exc = -9.34277794357     Coul =  46.7322358916    
                              N = 9.9999993488    
                            current damping = 1.000
 
          Norm of current diis error: 0.65611E-03
          max. resid. norm for Fia-block=  6.945D-05 for orbital      1a         
          max. resid. fock norm         =  1.012D-04 for orbital    107a         

 ITERATION  ENERGY          1e-ENERGY        2e-ENERGY     RMS[dD(SAO)]   TOL
  12  -76.470183920898    -122.98248754     37.389178664    0.190D-05 0.238D-12
                            Exc = -9.34274939083     Coul =  46.7319280552    
                              N = 9.9999993488    
                            current damping = 1.050
 
          Norm of current diis error: 0.31755E-03
          max. resid. norm for Fia-block=  3.476D-05 for orbital      1a         
          max. resid. fock norm         =  6.076D-05 for orbital    107a         

 ITERATION  ENERGY          1e-ENERGY        2e-ENERGY     RMS[dD(SAO)]   TOL
  13  -76.470183924916    -122.98252765     37.389218774    0.842D-06 0.238D-12
                            Exc = -9.34275953427     Coul =  46.7319783081    
                              N = 9.9999993488    
                            current damping = 1.100
 
          Norm of current diis error: 0.16087E-03
          max. resid. norm for Fia-block=  1.780D-05 for orbital      1a         
          max. resid. fock norm         =  2.967D-05 for orbital    107a         

 ITERATION  ENERGY          1e-ENERGY        2e-ENERGY     RMS[dD(SAO)]   TOL
  14  -76.470183925976    -122.98251076     37.389201885    0.437D-06 0.238D-12
                            Exc = -9.34275953857     Coul =  46.7319614238    
                              N = 9.9999993487    
                            current damping = 1.150
 
          Norm of current diis error: 0.84683E-04
          max. resid. norm for Fia-block=  9.331D-06 for orbital      1a         
          max. resid. fock norm         =  1.682D-05 for orbital    107a         

 ITERATION  ENERGY          1e-ENERGY        2e-ENERGY     RMS[dD(SAO)]   TOL
  15  -76.470183926255    -122.98252191     37.389213027    0.215D-06 0.238D-12
                            Exc = -9.34276224187     Coul =  46.7319752689    
                              N = 9.9999993487    
                            current damping = 1.200
 
          Norm of current diis error: 0.45260E-04
          max. resid. norm for Fia-block=  4.994D-06 for orbital      1a         
          max. resid. fock norm         =  8.039D-06 for orbital    107a         
          mo-orthogonalization: Cholesky decomposition

 ITERATION  ENERGY          1e-ENERGY        2e-ENERGY     RMS[dD(SAO)]   TOL
  16  -76.470183926337    -122.98250771     37.389198829    0.122D-06 0.238D-12
                            Exc = -9.34276091173     Coul =  46.7319597410    
                              N = 9.9999993487    
                            current damping = 1.250
 
          Norm of current diis error: 0.25442E-04
          max. resid. norm for Fia-block=  2.768D-06 for orbital      2a         
          max. resid. fock norm         =  5.337D-06 for orbital    107a         

 DENSITY CONVERGED !


 ITERATION  ENERGY          1e-ENERGY        2e-ENERGY     RMS[dD(SAO)]   TOL
  17  -76.470183926361    -122.98251559     37.389206712    0.585D-07 0.238D-12
                            Exc = -9.34276231206     Coul =  46.7319690236    
                              N = 9.9999993487    
                            current damping = 1.300
 
          Norm of current diis error: 0.13715E-04
          max. resid. norm for Fia-block=  1.515D-06 for orbital      1a         
          max. resid. fock norm         =  2.563D-06 for orbital    107a         

 ENERGY & DENSITY CONVERGED !

          Overall gridpoints after grid construction =         46259

 ITERATION  ENERGY          1e-ENERGY        2e-ENERGY     RMS[dD(SAO)]   TOL
  18  -76.470178243928    -122.98251220     37.389209005    0.351D-07 0.238D-12
                            Exc = -9.34275634032     Coul =  46.7319653454    
                              N = 10.000000005    
                            current damping = 1.350
 
          Norm of current diis error: 0.77973E-05
          max. resid. norm for Fia-block=  8.552D-07 for orbital      1a         
          max. resid. fock norm         =  1.555D-06 for orbital    107a         

 End of SCF iterations

   convergence criteria satisfied after    18 iterations


                  ------------------------------------------ 
                 |  total energy      =    -76.47017824393  |
                  ------------------------------------------ 
                 :  kinetic energy    =     76.22402539052  :
                 :  potential energy  =   -152.69420363445  :
                 :  virial theorem    =      1.99678106081  :
                 :  wavefunction norm =      1.00000000000  :
                  .......................................... 


 <geterg> : there is no data group $energy 


 <skperg> : $end is missing 


 orbitals $scfmo  will be written to file mos

    irrep                  1a          2a          3a          4a          5a   
 eigenvalues H        -18.87888    -0.94347    -0.48034    -0.34107    -0.26160
            eV        -513.7246    -25.6732    -13.0707     -9.2810     -7.1186
 occupation              2.0000      2.0000      2.0000      2.0000      2.0000 

    irrep                  6a          7a          8a          9a         10a   
 eigenvalues H          0.00277     0.07139     0.27861     0.31486     0.32299
            eV           0.0753      1.9425      7.5814      8.5679      8.7892
 
 
 
 
 ==============================================================================
                           electrostatic moments
 ==============================================================================

 reference point for electrostatic moments:    0.00000   0.00000   0.00000

 
              nuc           elec       ->  total
 ------------------------------------------------------------------------------
                          charge      
 ------------------------------------------------------------------------------
          10.000000     -10.000000      -0.000000
 
 ------------------------------------------------------------------------------
                       dipole moment  
 ------------------------------------------------------------------------------
   x      39.111791     -39.253533      -0.141742
   y      15.908363     -16.372671      -0.464308
   z       2.328282      -2.877084      -0.548802
 
   | dipole moment | =     0.7327 a.u. =     1.8623 debye 
 
 ------------------------------------------------------------------------------
                     quadrupole moment
 ------------------------------------------------------------------------------
  xx     156.549254    -161.256253      -4.706999
  yy      26.222294     -32.858562      -6.636268
  zz       2.196422      -7.224340      -5.027918
  xy      63.068612     -64.668486      -1.599874
  xz       8.049712     -10.855681      -2.805969
  yz       4.431906      -5.105434      -0.673528
 
     1/3  trace=      -5.457062
     anisotropy=       5.988825
 
 ==============================================================================
 


    ------------------------------------------------------------------------
         total  cpu-time :  28.74 seconds
         total wall-time :   2.58 seconds
    ------------------------------------------------------------------------

   ****  ridft : all done  ****


    2018-04-28 21:00:18.102 

