
   OpenMP run-time library returned nthreads = 28

 ricc2 (c-19-413) : TURBOMOLE V7.3 ( 22142 ) 4 Jul 2018 at 18:12:42
 Copyright (C) 2018 TURBOMOLE GmbH, Karlsruhe


    2019-04-02 19:11:10.816 



                              R I C C 2 - PROGRAM

                          the quantum chemistry groups
                             at the universities in
                           Karlsruhe, Bochum & Mainz
                                   Germany



   *-----------------------------------------------------------------------*
   |                     program will use 28 thread(s)                     |
   *-----------------------------------------------------------------------*


              +--------------------------------------------------+
              | Atomic coordinate, charge and isotop information |
              +--------------------------------------------------+

                    atomic coordinates            atom    charge  isotop
          1.61677549    0.67752813    1.98374806    c      6.000     0
          2.86071562    1.70581715    3.23665834    h      1.000     0
          2.53770780   -1.27628071    0.47461869    c      6.000     0
          4.52189513   -1.76376591    0.53283295    h      1.000     0
          0.90292364   -2.60158804   -1.11081081    c      6.000     0
          1.61776430   -4.11753849   -2.28056738    h      1.000     0
         -1.65318879   -1.97014559   -1.19138121    c      6.000     0
         -2.92039359   -2.99653899   -2.42341529    h      1.000     0
         -2.57455777   -0.01325437    0.31340436    c      6.000     0
         -4.55720878    0.47898365    0.24713621    h      1.000     0
         -0.94192273    1.30987680    1.90293907    c      6.000     0
         -1.63671240    2.81633424    3.09544125    h      1.000     0
          0.15482408    0.94019681    9.07962122    c      6.000     0
          0.62062144    2.91198665    7.96989980    o      8.000     0
         -0.41974196   -1.24244923    7.84909327    n      7.000     0
         -0.37212027   -1.25570628    5.94682577    h      1.000     0
         -0.71411685   -2.85909542    8.78583375    h      1.000     0
          0.19799430    0.76087724   11.93011714    c      6.000     0
          2.14765083    0.92001539   12.56331484    h      1.000     0
         -0.59928854   -0.99022425   12.65015131    h      1.000     0
         -0.84034344    2.35551566   12.69880200    h      1.000     0
 
       center of nuclear mass  :    0.04697117   -0.01940445    4.18268453
       center of nuclear charge:    0.04024265   -0.05600261    4.24391087

              +--------------------------------------------------+
              |               basis set information              |
              +--------------------------------------------------+

              we will work with the 1s 3p 5d 7f 9g ... basis set
              ...i.e. with spherical basis functions...

   type   atoms  prim   cont   basis
   ---------------------------------------------------------------------------
    c        8     77     55   cc-pVQZ   [5s4p3d2f1g|21s6p3d2f1g]
    h       11     32     30   cc-pVQZ   [4s3p2d1f|6s3p2d1f]
    o        1     77     55   cc-pVQZ   [5s4p3d2f1g|21s6p3d2f1g]
    n        1     77     55   cc-pVQZ   [5s4p3d2f1g|21s6p3d2f1g]
   ---------------------------------------------------------------------------
   total:   21   1122    880
   ---------------------------------------------------------------------------

   total number of primitive shells          :  111
   total number of contracted shells         :  260
   total number of cartesian basis functions : 1085
   total number of SCF-basis functions       :  880


 symmetry group of the molecule :   c1 

 the group has the following generators :
   c1(z)

    1 symmetry operations found

 there are 1 real representations :   a   


   =========================================================================


     restricted closed shell calculation for the wavefunction models:
               MP2        - Second Order Moeller Plesset PT


     global parameters for ricc2 program:

        hard restart (reuse of interm.) :  disabled
        soft restart (reuse of vectors) :  disabled
        threshold for vector function   :    0.100000E-05
        convergence threshold energy    :    0.100000E-06
        linear dependence threshold     :    0.100000E-13
        global print level              :      1
        maximum number of iterations    :   300
        maximum number DIIS vectors     :    10
        max. dim. of reduced space      :   100
        core memory limit (MB)          : 84000


     MP2 energy only: Energy will be calculated directly from T2 amplitudes!

     Scratch Directory : 


   =========================================================================

    der. integral neglect threshold  :  0.10E-07
    integral neglect threshold       :  0.31E-11
    integral storage threshold THIZE :  0.10E-04
    integral storage threshold THIME :         5


                  +------------------------------------------+
                  |     Auxiliary basis set information      |
                  +------------------------------------------+

              we will work with the 1s 3p 5d 7f 9g ... basis set
              ...i.e. with spherical basis functions...

   type   atoms  prim   cont   basis
   ---------------------------------------------------------------------------
    c        8    132    132   cc-pVQZ   [8s7p6d5f3g1h|8s7p6d5f3g1h]
    h       11     55     55   cc-pVQZ   [5s4p3d2f1g|5s4p3d2f1g]
    o        1    132    132   cc-pVQZ   [8s7p6d5f3g1h|8s7p6d5f3g1h]
    n        1    132    132   cc-pVQZ   [8s7p6d5f3g1h|8s7p6d5f3g1h]
   ---------------------------------------------------------------------------
   total:   21   1925   1925
   ---------------------------------------------------------------------------

   total number of primitive shells          :  105
   total number of contracted shells         :  465
   total number of cartesian basis functions : 2580
   total number of SCF-basis functions       : 1925


 maximum number of shells which are related by symmetry :  1


 The symmetry information takes   1 MB

*---------------------------------------------------------------------*
|               simplified C1 algorithm will be applied               |
*---------------------------------------------------------------------*
  MOs are in ASCII format !


 reading orbital data $scfmo  from file mos
 orbital characterization : scfconv=9



              +--------------------------------------------+
              | list of orbitals that will be kept frozen: |
              +--------------------------------------------+
              |   irrep   index      energy     occ/vir    |
              +--------------------------------------------+
              |   a         1      -20.5095     occupied   |
              |   a         2      -15.5770     occupied   |
              |   a         3      -11.3496     occupied   |
              |   a         4      -11.2343     occupied   |
              |   a         5      -11.2336     occupied   |
              |   a         6      -11.2327     occupied   |
              |   a         7      -11.2318     occupied   |
              |   a         8      -11.2315     occupied   |
              |   a         9      -11.2281     occupied   |
              |   a        10      -11.2269     occupied   |
              +--------------------------------------------+



   Molecular Orbital Statistic:
   ============================

   -----------------------------
   orbitals in total:
   -----------------------------
    frozen occupied :     10
    active occupied :     27
    active virtual  :    843
    frozen virtual  :      0
    all together    :    880
   -----------------------------


     time in riccmos       cpu:  7.99 sec    wall:  0.58 sec    ratio: 13.8

     total memory allocated for calculation of (Q|P)**(-1/2) : 43 MiB


     calculation of (P|Q) ...
     time in lp2sym        cpu:  2.05 sec    wall:  0.07 sec    ratio: 27.7


     calculation of the Cholesky decomposition of (P|Q)**(-1) ...
     time in invmetri      cpu:  7.34 sec    wall:  0.26 sec    ratio: 27.9

   threshold for RMS(d[D]) in SCF was     :  0.10E-06
   integral neglect threshold             :  0.31E-11
   derivative integral neglect threshold  :  0.10E-07


   =========================================================================

     Energy of reference wave function is  -438.8703619212000
     Maximum orbital residual is           0.5450959161659E-06


     Number of symmetry-nonredundant auxiliary basis functions:     1925

     Block lengths for integral files:
        frozen occupied (BOI):        1 MiB
        active occupied (BJI):        1 MiB
        active virtual  (BAI):       13 MiB
        frozen virtual  (BGI):        0 MiB
               general  (BTI):       13 MiB

   =========================================================================




   **************************************************************************
   *                                                                        *
   *          OPTIMIZATION OF THE GROUND STATE CLUSTER AMPLITUDES           *
   *                                                                        *
   **************************************************************************


   Iter.   MP2 energy       Norm(Omega)   Norm(t1)  Norm(t2)     cpu    wall
   ...........................................................................
    1   -440.7168291486     ------          0.00000   0.44800    1.14    0.04
   ...........................................................................


     time in total         cpu:  1 min  9 s  wall:  0 min  3 s  ratio: 27.0


     **********************************************************************
     *                                                                    *
     *   RHF  energy                             :   -438.8703619212      *
     *   MP2 correlation energy (doubles)        :     -1.8464672274      *
     *                                                                    *
     *   Final MP2 energy                        :   -440.7168291486      *
     *                                                                    *
     *    E(S)   =     -1.1769448280      E(T)   =     -0.6695223994      *
     *    E(OS)  =     -1.4001189611      E(SS)  =     -0.4463482663      *
     *                                                                    *
     *   SCS-MP2 energy                          :   -440.6992874299      *
     *   (computed with  C(OS) =   1.2000  and  C(SS) =   0.3333)         *
     *                                                                    *
     *   SOS-MP2 energy                          :   -440.6905165706      *
     *   (computed with  C(OS) =   1.3000)                                *
     *                                                                    *
     *   Norm of MP1 T2 amplitudes               :      0.4480043312      *
     *                                                                    *
     **********************************************************************



    ------------------------------------------------------------------------
         total  cpu-time :  2 minutes and 33 seconds
         total wall-time :   6.17 seconds
    ------------------------------------------------------------------------

   ****  ricc2 : all done  ****


    2019-04-02 19:11:16.955 

