STARTING dscf ON 32 PROCESSORS!
RUNNING PROGRAM /sopt/TURBOMOLE/7.2.1-official/bin/em64t-unknown-linux-gnu_mpi/dscf_mpi.
PLEASE WAIT UNTIL dscf HAS FINISHED.
Look for the output in slave1.output.
MACHINEFILE is ./hostlist
 this is node-proc. number 1 running on node c-17-12.gp.local
 the total number of node-proc. spawned is  33
  parallel platform: MPP or cluster with fast interconnect

 dscf (c-17-12.gp.local) : TURBOMOLE V7.2 ( 21471 ) 7 Nov 2017 at 16:15:16
 Copyright (C) 2017 TURBOMOLE GmbH, Karlsruhe


    2018-02-28 23:09:47.007 


 SCF run will be profiled !



                             d s c f - program

                   idea & directorship : reinhart ahlrichs
                   program development : marco haeser
                                         michael baer
                           dft version : oliver treutler
           parallelized version : malte v. arnim, gina corongiu, GMD 


                          quantum chemistry group
                          universitaet  karlsruhe
                                  germany




                          References             
                                                 
          TURBOMOLE:                             
              R. Ahlrichs, M. Baer, M. Haeser, H. Horn, and
              C. Koelmel
              Electronic structure calculations on workstation
              computers: the program system TURBOMOLE
              Chem. Phys. Lett. 162: 165 (1989)
          Density Functional:                              
              O. Treutler and R. Ahlrichs                      
              Efficient Molecular Numerical Integration Schemes
              J. Chem. Phys. 102: 346 (1995)                   
          Parallel Version:                                
              Performance of parallel TURBOMOLE for Density    
              Functional Calculations                          
              M. v. Arnim and R. Ahlrichs                      
              J. Comp. Chem. 19: 1746 (1998)                   
                                         




              +--------------------------------------------------+
              | Atomic coordinate, charge and isotop information |
              +--------------------------------------------------+

                    atomic coordinates            atom    charge  isotop
         -0.45351847    2.40216059   15.73924984    n      7.000     0
          4.78470212    9.46324004  -11.89419133    n      7.000     0
         -4.93612740   -9.11525848   14.70663949    c      6.000     0
         -3.83018793  -10.62754060   15.56964417    h      1.000     0
         -6.91669198   -9.38212519   15.22008015    h      1.000     0
         -3.97138851   -6.53666496   15.49383132    c      6.000     0
         -1.73382680   -6.31528504   16.87671486    c      6.000     0
         -0.67895034   -7.99392149   17.41252003    h      1.000     0
         -0.86678152   -3.94307515   17.64518763    c      6.000     0
          0.84882955   -3.81391132   18.76662406    h      1.000     0
         -2.22665230   -1.76291231   17.04049384    c      6.000     0
         -4.47823625   -1.98824725   15.66248408    c      6.000     0
         -5.60025350   -0.32399502   15.22585216    h      1.000     0
         -5.34071803   -4.34830345   14.89776131    c      6.000     0
         -7.11943831   -4.48095149   13.87885535    h      1.000     0
         -1.31149259    0.80349653   17.92128423    c      6.000     0
         -2.80492131    1.86552860   18.86943477    h      1.000     0
          0.28533389    0.62884699   19.21524890    h      1.000     0
          1.78063803    1.87566576   14.59214300    c      6.000     0
          2.89744094    0.38234346   15.43778288    h      1.000     0
          2.52385592    3.15128902   12.45292925    c      6.000     0
          4.30176774    2.62704556   11.58250934    h      1.000     0
          0.96058303    5.01842009   11.36078552    c      6.000     0
         -1.29118807    5.58613988   12.67131072    c      6.000     0
         -2.53414269    7.08556011   12.03808211    h      1.000     0
         -1.94817452    4.27329559   14.82224562    c      6.000     0
         -3.65695699    4.66725888   15.87963300    h      1.000     0
          1.60480603    6.20267407    8.94108081    c      6.000     0
          4.12796567    6.39857521    8.11493253    c      6.000     0
          5.66990616    5.90321484    9.37489308    h      1.000     0
          4.68900732    7.29428041    5.71717898    c      6.000     0
          6.65396348    7.47474510    5.15884019    h      1.000     0
          2.75666437    7.99416080    4.02603031    c      6.000     0
          0.24592047    7.90174711    4.89777395    c      6.000     0
         -1.29120293    8.41670028    3.64230610    h      1.000     0
         -0.31991793    7.03988666    7.30635511    c      6.000     0
         -2.28736395    6.90165040    7.87110447    h      1.000     0
          3.30593367    8.65639870    1.37011697    c      6.000     0
          5.39559907    7.58575267    0.12137745    c      6.000     0
          6.66958954    6.34444460    1.14139587    h      1.000     0
          5.79436874    7.98548174   -2.43705766    c      6.000     0
          7.37096694    7.04383963   -3.35172446    h      1.000     0
          4.09832817    9.45356886   -3.86752390    c      6.000     0
          2.06789614   10.61896514   -2.60000996    c      6.000     0
          0.80204953   11.87691243   -3.61275788    h      1.000     0
          1.69481680   10.24301408   -0.03366689    c      6.000     0
          0.14589346   11.21224628    0.89740763    h      1.000     0
          4.37186289    9.61346932   -6.61934645    c      6.000     0
          6.72738171    9.33170236   -7.83702572    c      6.000     0
          8.46477400    9.19686350   -6.76114644    h      1.000     0
          6.88442407    9.26291981  -10.43571864    c      6.000     0
          8.66221682    9.05851753  -11.43120949    h      1.000     0
          2.49833395    9.84634649  -10.79391074    c      6.000     0
          0.90426557   10.02067643  -12.06708127    h      1.000     0
          2.25380408    9.94890983   -8.20826851    c      6.000     0
          0.38063967   10.21040723   -7.42325792    h      1.000     0
          0.45381173   -2.40259142  -15.73950849    n      7.000     0
         -4.78402753   -9.46284449   11.89408988    n      7.000     0
          4.93696314    9.11496783  -14.70653005    c      6.000     0
          3.83157732   10.62728186  -15.57021078    h      1.000     0
          6.91767645    9.38108125  -15.21987413    h      1.000     0
          3.97157968    6.53640173  -15.49308498    c      6.000     0
          1.73754536    6.31565265  -16.88166887    c      6.000     0
          0.68508590    7.99464674  -17.42108819    h      1.000     0
          0.87044796    3.94340011  -17.65012554    c      6.000     0
         -0.84282287    3.81450003  -18.77515964    h      1.000     0
          2.22680325    1.76270804  -17.03968182    c      6.000     0
          4.47458885    1.98734706  -15.65531810    c      6.000     0
          5.59327428    0.32239581  -15.21283137    h      1.000     0
          5.33708858    4.34736514  -14.89062842    c      6.000     0
          7.11248989    4.47933073  -13.86586392    h      1.000     0
          1.31223571   -0.80372344  -17.92106851    c      6.000     0
          2.80616178   -1.86545423  -18.86881304    h      1.000     0
         -0.28408521   -0.62904062  -19.21567146    h      1.000     0
         -1.77929069   -1.87423703  -14.59114634    c      6.000     0
         -2.89472650   -0.37917538  -15.43552320    h      1.000     0
         -2.52285356   -3.15004520  -12.45220055    c      6.000     0
         -4.29967128   -2.62420671  -11.58051726    h      1.000     0
         -0.96086712   -5.01912074  -11.36145588    c      6.000     0
          1.28969523   -5.58861098  -12.67321796    c      6.000     0
          2.53174691   -7.08914314  -12.04083712    h      1.000     0
          1.94702101   -4.27556671  -14.82396610    c      6.000     0
          3.65500078   -4.67064550  -15.88223948    h      1.000     0
         -1.60537537   -6.20366969   -8.94197087    c      6.000     0
         -4.12843498   -6.39696860   -8.11486815    c      6.000     0
         -5.67029436   -5.89990334   -9.37425414    h      1.000     0
         -4.68951225   -7.29223423   -5.71696893    c      6.000     0
         -6.65444913   -7.47020504   -5.15775121    h      1.000     0
         -2.75728513   -7.99419003   -4.02655945    c      6.000     0
         -0.24672505   -7.90398054   -4.89910199    c      6.000     0
          1.29035320   -8.41979895   -3.64393843    h      1.000     0
          0.31910647   -7.04262223   -7.30787323    c      6.000     0
          2.28650472   -6.90615178   -7.87323556    h      1.000     0
         -3.30640593   -8.65602599   -1.37051643    c      6.000     0
         -5.39476753   -7.58347223   -0.12125718    c      6.000     0
         -6.66828683   -6.34154486   -1.14111696    h      1.000     0
         -5.79316313   -7.98268999    2.43730570    c      6.000     0
         -7.36853441   -7.03946680    3.35244707    h      1.000     0
         -4.09806843   -9.45231199    3.86734276    c      6.000     0
         -2.06925220  -10.61986942    2.59925565    c      6.000     0
         -0.80444981  -11.87918807    3.61160521    h      1.000     0
         -1.69649548  -10.24428581    0.03280355    c      6.000     0
         -0.14909862  -11.21541351   -0.89882770    h      1.000     0
         -4.37153458   -9.61256987    6.61915484    c      6.000     0
         -6.72671001   -9.32834855    7.83701065    c      6.000     0
         -8.46401031   -9.19185560    6.76120307    h      1.000     0
         -6.88358245   -9.25994971   10.43569066    c      6.000     0
         -8.66117845   -9.05411018   11.43122943    h      1.000     0
         -2.49817030   -9.84828320   10.79363788    c      6.000     0
         -0.90425194  -10.02509685   12.06664781    h      1.000     0
         -2.25381315   -9.95049080    8.20793214    c      6.000     0
         -0.38096082  -10.21414646    7.42289133    h      1.000     0
 
       center of nuclear mass  :   -0.00000537    0.00001263   -0.00004497
       center of nuclear charge:   -0.00000441    0.00001086   -0.00003875

              +--------------------------------------------------+
              |               basis set information              |
              +--------------------------------------------------+

              we will work with the 1s 3p 5d 7f 9g ... basis set
              ...i.e. with spherical basis functions...

   type   atoms  prim   cont   basis
   ---------------------------------------------------------------------------
    n        4     77     57   def2-QZVP   [7s4p3d2f1g|15s8p3d2f1g]
    c       60     77     57   def2-QZVP   [7s4p3d2f1g|15s8p3d2f1g]
    h       48     33     30   def2-QZVP   [4s3p2d1f|7s3p2d1f]
   ---------------------------------------------------------------------------
   total:  112   6512   5088
   ---------------------------------------------------------------------------

   total number of primitive shells          :   71
   total number of contracted shells         : 1568
   total number of cartesian basis functions : 6288
   total number of SCF-basis functions       : 5088


 integral neglect threshold       :  0.53E-12
 integral storage threshold THIZE :  0.10E-04
 integral storage threshold THIME :         5


 DENSITY CONVERGENCE CHECK SWITCHED ON !
 SCF CONVERGENCE IF RMS(delta[D]) <     0.1000000000E-06


 symmetry group of the molecule :   c1 

 the group has the following generators :
   c1(z)

    1 symmetry operations found

 there are 1 real representations :   a   

 maximum number of shells which are related by symmetry :  1


    mo occupation :
   irrep   mo's   occupied
    a     5088      216
 
 number of basis functions   :                   5088
 number of occupied orbitals :                    216
 

 automatic virtual orbital shift switched on 
      shift if e(lumo)-e(homo) < 0.10000000    


 keyword $2e-ints_shell_statistics missing in file <control>

 ! One task per shell generated
  No pre-computed optimal task distribution found
  ... using automatic task generation

          ------------------------
          nuclear repulsion energy  :   7673.59274149    
          ------------------------


         -----------------
         -S,T+V- integrals
         -----------------

 1e-integrals will be neglected if expon. factor < 0.531482E-13
 
   Difference densities algorithm switched on.
   The maximal number of linear combinations of
   difference densities is                    20 .

 DIIS switched on: error vector is FDS-SDF
 Max. Iterations for DIIS is     :   5
 DIIS matrix (see manual) 
    Scaling factor of diagonals  :  1.200
    threshold for scaling factor :  0.000

 scf convergence criterion : increment of total energy < .1000000D-06
                  and increment of one-electron energy < .1000000D-03

  MOs are in ASCII format !


 reading orbital data $scfmo  from file mos
 orbital characterization : expanded
 mo provided and orthogonalized by Cholesky decomposition

 DSCF restart information will be dumped onto file mos

 
                                              current damping :  0.300
 ITERATION  ENERGY          1e-ENERGY        2e-ENERGY     RMS[dD(SAO)]   TOL
   1  -2508.7854762948    -18455.195585     8272.8173674    0.000D+00 0.530D-12
          max. resid. norm for Fia-block=  6.527D-01 for orbital     67a         
          max. resid. fock norm         =  4.219D+01 for orbital   4293a         
          Delta Eig. =  4132.6334283136 eV 
 
                                              current damping :  0.250
 ITERATION  ENERGY          1e-ENERGY        2e-ENERGY     RMS[dD(SAO)]   TOL
   2  -2516.6059674857    -18547.367944     8357.1692349    0.373D-02 0.516D-12
          Norm of current diis error:  7.8047    
          max. resid. norm for Fia-block=  1.060D-01 for orbital     82a         
          max. resid. fock norm         =  1.452D-01 for orbital    254a         
          Delta Eig. =   999.7233617173 eV 
 
                                              current damping :  0.150
 ITERATION  ENERGY          1e-ENERGY        2e-ENERGY     RMS[dD(SAO)]   TOL
   3  -2517.6133869839    -18555.804614     8364.5984856    0.980D-03 0.301D-12
          Norm of current diis error:  2.5052    
          max. resid. norm for Fia-block=  3.598D-02 for orbital     78a         
          max. resid. fock norm         =  3.772D-02 for orbital     78a         
          Delta Eig. =   215.7901712778 eV 
 
                                              current damping :  0.100
 ITERATION  ENERGY          1e-ENERGY        2e-ENERGY     RMS[dD(SAO)]   TOL
   4  -2517.7620510282    -18564.395022     8373.0402293    0.296D-03 0.251D-12
          Norm of current diis error: 0.57098    
          max. resid. norm for Fia-block=  9.797D-03 for orbital    207a         
          max. resid. fock norm         =  1.243D-02 for orbital    217a         
          Delta Eig. =    30.5405613338 eV 
 
                                              current damping :  0.150
 ITERATION  ENERGY          1e-ENERGY        2e-ENERGY     RMS[dD(SAO)]   TOL
   5  -2517.7742132309    -18564.184994     8372.8180394    0.719D-04 0.230D-12
          Norm of current diis error: 0.18852    
          max. resid. norm for Fia-block=  3.528D-03 for orbital    200a         
          max. resid. fock norm         =  6.721D-03 for orbital   4911a         
 mo-orthogonalization: Cholesky decomposition
          Delta Eig. =     2.1357615850 eV 
 
                                              current damping :  0.200
 ITERATION  ENERGY          1e-ENERGY        2e-ENERGY     RMS[dD(SAO)]   TOL
   6  -2517.7756060052    -18564.776644     8373.4082968    0.177D-04 0.217D-12
          Norm of current diis error: 0.78592E-01
          max. resid. norm for Fia-block=  1.621D-03 for orbital    206a         
          max. resid. fock norm         =  2.796D-03 for orbital   4820a         
          Delta Eig. =     0.4926641476 eV 
 
                                              current damping :  0.250
 ITERATION  ENERGY          1e-ENERGY        2e-ENERGY     RMS[dD(SAO)]   TOL
   7  -2517.7758822840    -18564.762018     8373.3933942    0.727D-05 0.208D-12
          Norm of current diis error: 0.31747E-01
          max. resid. norm for Fia-block=  9.380D-04 for orbital    200a         
          max. resid. fock norm         =  1.171D-03 for orbital    218a         
          Delta Eig. =     0.0566020705 eV 
 
                                              current damping :  0.100
 ITERATION  ENERGY          1e-ENERGY        2e-ENERGY     RMS[dD(SAO)]   TOL
   8  -2517.7759451896    -18564.742672     8373.3739850    0.332D-05 0.199D-12
          Norm of current diis error: 0.16279E-01
          max. resid. norm for Fia-block=  6.267D-04 for orbital    206a         
          max. resid. fock norm         =  6.446D-04 for orbital    206a         
          Delta Eig. =     0.0211586841 eV 
 
                                              current damping :  0.150
 ITERATION  ENERGY          1e-ENERGY        2e-ENERGY     RMS[dD(SAO)]   TOL
   9  -2517.7759658408    -18564.754594     8373.3858864    0.174D-05 0.190D-12
          Norm of current diis error: 0.81756E-02
          max. resid. norm for Fia-block=  2.796D-04 for orbital    199a         
          max. resid. fock norm         =  3.433D-04 for orbital    218a         
          Delta Eig. =     0.0120481229 eV 
 
                                              current damping :  0.200
 ITERATION  ENERGY          1e-ENERGY        2e-ENERGY     RMS[dD(SAO)]   TOL
  10  -2517.7759711032    -18564.752690     8373.3839776    0.684D-06 0.183D-12
          Norm of current diis error: 0.43286E-02
          max. resid. norm for Fia-block=  1.958D-04 for orbital    206a         
          max. resid. fock norm         =  2.039D-04 for orbital    206a         
 mo-orthogonalization: Cholesky decomposition
          Delta Eig. =     0.0037174172 eV 
 
                                              current damping :  0.100
 ITERATION  ENERGY          1e-ENERGY        2e-ENERGY     RMS[dD(SAO)]   TOL
  11  -2517.7759727306    -18564.749694     8373.3809796    0.353D-06 0.177D-12
          Norm of current diis error: 0.24170E-02
          max. resid. norm for Fia-block=  1.089D-04 for orbital    206a         
          max. resid. fock norm         =  1.167D-04 for orbital    218a         
          Delta Eig. =     0.0045076814 eV 
 
                                              current damping :  0.150
 ITERATION  ENERGY          1e-ENERGY        2e-ENERGY     RMS[dD(SAO)]   TOL
  12  -2517.7759733463    -18564.751374     8373.3826596    0.268D-06 0.170D-12
          Norm of current diis error: 0.11346E-02
          max. resid. norm for Fia-block=  6.047D-05 for orbital    215a         
          max. resid. fock norm         =  6.129D-05 for orbital    216a         
          Delta Eig. =     0.0014017339 eV 
 
                                              current damping :  0.200
 ITERATION  ENERGY          1e-ENERGY        2e-ENERGY     RMS[dD(SAO)]   TOL
  13  -2517.7759734800    -18564.749812     8373.3810967    0.135D-06 0.164D-12
          Norm of current diis error: 0.48616E-03
          max. resid. norm for Fia-block=  2.289D-05 for orbital    211a         
          max. resid. fock norm         =  2.420D-05 for orbital    220a         
          Delta Eig. =     0.0007832594 eV 

 DENSITY CONVERGED !

 
                                              current damping :  0.250
 ITERATION  ENERGY          1e-ENERGY        2e-ENERGY     RMS[dD(SAO)]   TOL
  14  -2517.7759734997    -18564.750116     8373.3814011    0.533D-07 0.161D-12
          Norm of current diis error: 0.21915E-03
          max. resid. norm for Fia-block=  1.098D-05 for orbital    215a         
          max. resid. fock norm         =  1.106D-05 for orbital    215a         
          Delta Eig. =     0.0003295776 eV 

 ENERGY & DENSITY CONVERGED !

 
                                              current damping :  0.300
 ITERATION  ENERGY          1e-ENERGY        2e-ENERGY     RMS[dD(SAO)]   TOL
  15  -2517.7759735044    -18564.749955     8373.3812400    0.227D-07 0.158D-12
          max. resid. norm for Fia-block=  2.031D-06 for orbital    177a         
          max. resid. fock norm         =  3.156D-06 for orbital   1303a         

 convergence criteria satisfied after    15 iterations


                  ------------------------------------------ 
                 |  total energy      =  -2517.77597350435  |
                  ------------------------------------------ 
                 :  kinetic energy    =   2513.91910601358  :
                 :  potential energy  =  -5031.69507951793  :
                 :  virial theorem    =      1.99846814509  :
                 :  wavefunction norm =      1.00000000000  :
                  .......................................... 


 <geterg> : there is no data group $energy 


 <skperg> : $end is missing 


 orbitals $scfmo  will be written to file mos

    irrep                212a        213a        214a        215a        216a   
 eigenvalues H         -0.61749    -0.61496    -0.61495    -0.57026    -0.57000
            eV         -16.8030    -16.7340    -16.7339    -15.5177    -15.5106
 occupation              2.0000      2.0000      2.0000      2.0000      2.0000 

    irrep                217a        218a        219a        220a        221a   
 eigenvalues H         -0.26644    -0.26534    -0.24499    -0.24300    -0.19901
            eV          -7.2504     -7.2202     -6.6667     -6.6124     -5.4154
 
 
 
 
 ==============================================================================
                           electrostatic moments
 ==============================================================================

 reference point for electrostatic moments:    0.00000   0.00000   0.00000

 
              nuc           elec       ->  total
 ------------------------------------------------------------------------------
                          charge      
 ------------------------------------------------------------------------------
         436.000000    -432.000000       4.000000
 
 ------------------------------------------------------------------------------
                       dipole moment  
 ------------------------------------------------------------------------------
   x      -0.001922       0.002387       0.000465
   y       0.004734      -0.004840      -0.000106
   z      -0.016896       0.016997       0.000101
 
   | dipole moment | =     0.0005 a.u. =     0.0012 debye 
 
 ------------------------------------------------------------------------------
                     quadrupole moment
 ------------------------------------------------------------------------------
  xx    6005.335964   -6176.253375    -170.917411
  yy   22801.649440  -22843.053929     -41.404489
  zz   57231.827216  -56812.184289     419.642927
  xy    8980.336980   -8904.707021      75.629959
  xz   -8054.881182    7956.048293     -98.832889
  yz   -8034.569855    7917.469343    -117.100512
 
     1/3  trace=      69.107009
     anisotropy=     613.718989
 
 ==============================================================================
 

    dscf profiling
  --------------------------------------------------------------------
             module   cpu total (s)       %  wall total (s)       %

          dscf.total         37614.6  100.00         33930.3  100.00
        dscf.prepare           150.2    0.40           150.2    0.44
      prepare.oneint             1.2    0.00             1.2    0.00
     prepare.moinput             0.9    0.00             0.9    0.00
     moinput_orthmos           146.9    0.39           146.9    0.43
            dscf.scf         37459.2   99.59         33774.8   99.54
             scf.pre             0.0    0.00             0.0    0.00
        scf.makedmat            48.2    0.13            48.4    0.14
          scf.shloop         31735.7   84.37         31740.9   93.55
          shloop_omp         31731.3   84.36         31736.4   93.53
          scf.symcar             6.1    0.02             6.1    0.02
        scf.makefock             9.4    0.02            10.3    0.03
          scf.newerg             0.4    0.00             0.4    0.00
          scf.newcnv          1056.6    2.81           136.5    0.40
           scf.fdiag          3055.5    8.12           382.8    1.13
         diag_tritrn           789.2    2.10            99.0    0.29
          diag_rdiag          2255.2    6.00           282.0    0.83
          scf.modump          1279.6    3.40          1271.0    3.75
           ortho_all           174.2    0.46            85.3    0.25
            scf.post            93.2    0.25            93.0    0.27
        dscf.postscf             5.2    0.01             5.3    0.02
 


    ------------------------------------------------------------------------
         total  cpu-time : 10 hours 26 minutes and 55 seconds
         total wall-time :  9 hours 25 minutes and 31 seconds
    ------------------------------------------------------------------------

   ****  dscf : all done  ****


    2018-03-01 08:35:17.416 

