 this is node-proc. number 0 running on node c-8-23.local
 the total number of node-proc. spawned is   3

 dscfserver (c-8-23.local) : TURBOMOLE V7.2 ( 21471 ) 7 Nov 2017 at 16:15:16
 Copyright (C) 2017 TURBOMOLE GmbH, Karlsruhe


    2018-02-14 09:35:50.265 

 
    0:00:01 ---- Start global counter...
    0:00:28 ---- ... finished.
 
    0:00:28 ---- Start global counter...
    0:00:51 ---- ... finished.
 
    0:00:52 ---- Start global counter...
    0:01:13 ---- ... finished.
 
    0:01:13 ---- Start global counter...
    0:01:32 ---- ... finished.
 
    0:01:32 ---- Start global counter...
    0:01:50 ---- ... finished.
 
    0:01:50 ---- Start global counter...
    0:02:05 ---- ... finished.
 
    0:02:06 ---- Start global counter...
    0:02:20 ---- ... finished.
 
    0:02:21 ---- ByeBye Tag received


 ! Total wall-clock time in seconds  :      140.6
 ! Time (sec) spent in global counter:      136.2
 ! So-called SERIAL wall-clock time  :        4.4

  *** Regular termination of server ***
 total turnaround time of dscfserver   140.95 sec
 cpu elapsed by dscfserver process     136.14 sec 

   ***  dscf server : all done  ***


    2018-02-14 09:38:11.215 

