
   OpenMP run-time library returned nthreads = 32
 operating system is UNIX !

 dscf (c-13-37) : TURBOMOLE V7.3 ( 22142 ) 4 Jul 2018 at 18:12:42
 Copyright (C) 2018 TURBOMOLE GmbH, Karlsruhe


    2019-03-03 11:55:18.960 



                             d s c f - program

                   idea & directorship : reinhart ahlrichs
                   program development : marco haeser
                                         michael baer
                           dft version : oliver treutler


                          quantum chemistry group
                          universitaet  karlsruhe
                                  germany




                          References             
                                                 
          TURBOMOLE:                             
              R. Ahlrichs, M. Baer, M. Haeser, H. Horn, and
              C. Koelmel
              Electronic structure calculations on workstation
              computers: the program system TURBOMOLE
              Chem. Phys. Lett. 162: 165 (1989)
          Density Functional:                              
              O. Treutler and R. Ahlrichs                      
              Efficient Molecular Numerical Integration Schemes
              J. Chem. Phys. 102: 346 (1995)                   
          Parallel Version:                                
              Performance of parallel TURBOMOLE for Density    
              Functional Calculations                          
              M. v. Arnim and R. Ahlrichs                      
              J. Comp. Chem. 19: 1746 (1998)                   
                                         



 UHF mode switched on !


              +--------------------------------------------------+
              | Atomic coordinate, charge and isotop information |
              +--------------------------------------------------+

                    atomic coordinates            atom    charge  isotop
         -0.27392767    6.18818287   -1.19323442    c      6.000     0
         -2.46344820    5.77825110   -2.60449668    c      6.000     0
         -4.69406805    5.39705010   -1.25235045    c      6.000     0
         -4.71896468    5.33937411    1.40379664    c      6.000     0
         -2.51325613    5.65638383    2.81229344    c      6.000     0
         -0.29786243    6.12649045    1.46128208    c      6.000     0
         -7.42369670    4.94664129   -2.11437938    c      6.000     0
         -8.01020488    2.21932752   -1.35181215    c      6.000     0
         -8.03725358    2.16388317    1.30730299    c      6.000     0
         -7.46489992    4.85601441    2.19433662    c      6.000     0
         -8.21278505    0.01810099   -2.78448300    c      6.000     0
         -8.41651363   -2.24308769   -1.44718003    c      6.000     0
         -8.44656696   -2.29788448    1.20944883    c      6.000     0
         -8.27109442   -0.09424167    2.64330177    c      6.000     0
         -8.82968140    6.36029905    0.05739418    c      6.000     0
          2.39027378    6.99321655   -1.97848427    c      6.000     0
          2.35235812    6.89052653    2.33049402    c      6.000     0
          4.24147849    4.87580284    1.47132178    c      6.000     0
          4.26509097    4.93957097   -1.18371065    c      6.000     0
          5.91294667    3.35512868    2.83023998    c      6.000     0
          7.66851269    1.97163671    1.43096469    c      6.000     0
          7.69268833    2.03630958   -1.22332760    c      6.000     0
          5.96135589    3.48626611   -2.58483295    c      6.000     0
          2.91213551    8.90127657    0.22748521    c      6.000     0
          9.87955435    0.34201931   -2.07606855    c      6.000     0
          9.16121296   -2.35519697   -1.32189989    c      6.000     0
          9.13547654   -2.42067080    1.33912720    c      6.000     0
          9.83927950    0.23553955    2.23914075    c      6.000     0
          8.55003633   -4.47911664   -2.72960456    c      6.000     0
          7.90074397   -6.70058297   -1.42801560    c      6.000     0
          7.87418278   -6.76523801    1.20657191    c      6.000     0
          8.49702020   -4.61077509    2.62831133    c      6.000     0
         11.77284805    0.92596676    0.11507086    c      6.000     0
         -8.31765320   -5.08264753    1.98095982    c      6.000     0
         -5.66578505   -5.91320825    1.16915395    c      6.000     0
         -5.63424863   -5.85826681   -1.48990153    c      6.000     0
         -8.26696047   -4.99384176   -2.32930173    c      6.000     0
         -3.49926977   -6.47956146    2.52780821    c      6.000     0
         -1.27490755   -7.03090264    1.18478368    c      6.000     0
         -1.24350676   -6.97651469   -1.44679147    c      6.000     0
         -3.43541577   -6.36901447   -2.81855926    c      6.000     0
         -9.87669067   -6.27071994   -0.21820226    c      6.000     0
         -2.45293250    5.84170785   -4.65828111    h      1.000     0
         -2.54030476    5.62746428    4.86674303    h      1.000     0
         -7.86021476    5.46727457   -4.05896044    h      1.000     0
         -7.93793132    5.29540784    4.15039240    h      1.000     0
         -8.11773151    0.05695326   -4.83606366    h      1.000     0
         -8.21892315   -0.14040999    4.69617359    h      1.000     0
         -8.40520683    8.38336035    0.10379812    h      1.000     0
        -10.87139950    6.03249122    0.03110172    h      1.000     0
          2.58575316    7.68646846   -3.90969091    h      1.000     0
          2.51428016    7.49054723    4.29570952    h      1.000     0
          5.92036190    3.32542755    4.88459561    h      1.000     0
          6.00539813    3.55672082   -4.63768537    h      1.000     0
          1.57808781   10.48167210    0.25357661    h      1.000     0
          4.86728229    9.57563420    0.26070415    h      1.000     0
         10.52462718    0.60197849   -4.01471252    h      1.000     0
         10.44834115    0.39868506    4.19987928    h      1.000     0
          8.55317824   -4.43267819   -4.78236547    h      1.000     0
          7.42215295   -8.39155584   -2.48982777    h      1.000     0
          7.37511979   -8.50599670    2.17421000    h      1.000     0
          8.46001633   -4.66542580    4.68063699    h      1.000     0
         12.34503118    2.91199338    0.16959266    h      1.000     0
         13.42257530   -0.32126072    0.09956026    h      1.000     0
         -8.86590784   -5.52843885    3.91606486    h      1.000     0
         -8.76901896   -5.35979147   -4.29349730    h      1.000     0
         -3.50574853   -6.49981107    4.58215679    h      1.000     0
          0.44499429   -7.48905430    2.20842478    h      1.000     0
          0.50076807   -7.39237995   -2.44683686    h      1.000     0
         -3.39255161   -6.30418384   -4.87158605    h      1.000     0
        -11.84562010   -5.64075869   -0.22849212    h      1.000     0
         -9.76050689   -8.33473128   -0.25925689    h      1.000     0
          0.45225024   -0.84580528   -2.67538841    c      6.000     0
          0.39459213   -0.96458343    2.64450498    c      6.000     0
          2.65068144   -1.59445664    1.27425079    c      6.000     0
          2.67838650   -1.53842875   -1.28668131    c      6.000     0
         -1.86312907   -0.39368195    1.25325411    c      6.000     0
         -1.83502433   -0.33633433   -1.30877236    c      6.000     0
          0.39835682   -0.91584286    5.28048328    c      6.000     0
          0.51180813   -0.67721549   -5.30584722    c      6.000     0
          2.77402361   -1.11680390   -6.67834118    c      6.000     0
         -1.67831952   -0.01779465   -6.70601427    c      6.000     0
          2.63210793   -1.41763333    6.67793288    c      6.000     0
         -1.82246115   -0.32547143    6.66297961    c      6.000     0
         -3.49875237    0.52904976   -7.81566922    n      7.000     0
          4.65792050   -1.46517054   -7.76197770    n      7.000     0
          4.49465740   -1.81660459    7.78080392    n      7.000     0
         -3.66774209    0.16586375    7.75746116    n      7.000     0
          4.38153149   -2.03474681   -2.30488992    h      1.000     0
          4.33175845   -2.13518022    2.30621546    h      1.000     0
         -3.59288106    0.00412870    2.26777285    h      1.000     0
         -3.54226819    0.10761482   -2.34209481    h      1.000     0
 
       center of nuclear mass  :   -0.02445020   -0.00205921   -0.00030095
       center of nuclear charge:   -0.02078878   -0.00241579   -0.00027129

              +--------------------------------------------------+
              |               basis set information              |
              +--------------------------------------------------+

              we will work with the 1s 3p 5d 7f 9g ... basis set
              ...i.e. with spherical basis functions...

   type   atoms  prim   cont   basis
   ---------------------------------------------------------------------------
    c       54     50     30   cc-pVTZ   [4s3p2d1f|18s5p2d1f]
    h       34     16     14   cc-pVTZ   [3s2p1d|5s2p1d]
    n        4     50     30   cc-pVTZ   [4s3p2d1f|18s5p2d1f]
   ---------------------------------------------------------------------------
   total:   92   3444   2216
   ---------------------------------------------------------------------------

   total number of primitive shells          :   60
   total number of contracted shells         :  784
   total number of cartesian basis functions : 2540
   total number of SCF-basis functions       : 2216


 integral neglect threshold       :  0.13E-13
 integral storage threshold THIZE :  0.10E-04
 integral storage threshold THIME :         5


 DENSITY CONVERGENCE CHECK SWITCHED ON !
 SCF CONVERGENCE IF RMS(delta[D]) <     0.1000000000E-06


 symmetry group of the molecule :   c1 

 the group has the following generators :
   c1(z)

    1 symmetry operations found

 there are 1 real representations :   a   

 maximum number of shells which are related by symmetry :  1


    mo occupation :
   irrep   mo's   occupied
    a     2216      194
 
 number of basis functions   :                   2216
 number of occupied orbitals :                    194
 

 automatic virtual orbital shift switched on 
      shift if e(lumo)-e(homo) < 0.10000000    


   ----> a dscf RESTART run will be tried ! <----
     2e integrals will be read from 2e integral file(s)

 $restart flag 'dscf  twoint' will be switched off !


          ------------------------
          nuclear repulsion energy  :   8253.98822482    
          ------------------------


         -----------------
         -S,T+V- integrals
         -----------------

 1e-integrals will be neglected if expon. factor < 0.131573E-14
 
   Difference densities algorithm switched on.
   The maximal number of linear combinations of
   difference densities is                    20 .

 DIIS switched on: error vector is FDS-SDF
 Max. Iterations for DIIS is     :   5
 DIIS matrix (see manual) 
    Scaling factor of diagonals  :  1.200
    threshold for scaling factor :  0.000

 scf convergence criterion : increment of total energy < .1000000D-08
                  and increment of one-electron energy < .1000000D-05

  MOs are in ASCII format !


 reading orbital data $uhfmo_alpha  from file alpha
 orbital characterization : scfdump=59

 reading orbital data $uhfmo_beta  from file beta
 orbital characterization : scfdump=59

 DSCF restart information will be dumped onto file alpha


 complete restart information read in from $restartd
 iterations from earlier run will be continued
 
                                              current damping :  0.100
 ITERATION  ENERGY          1e-ENERGY        2e-ENERGY     RMS[dD(SAO)]   TOL
  60  -2282.9757336169    -19545.512009     9008.5480506    0.904D-16 0.166D-14
          max. resid. norm for Fia-block=  1.334D-04 for orbital    178a    alpha
          max. resid. fock norm         =  1.366D-04 for orbital    178a    alpha
 mo-orthogonalization: Cholesky decomposition
          Delta Eig. =     0.0018267603 eV 
 
                                              current damping :  0.150
 ITERATION  ENERGY          1e-ENERGY        2e-ENERGY     RMS[dD(SAO)]   TOL
  61  -2282.9757343448    -19545.511393     9008.5474335    0.330D-06 0.166D-14
          Norm of current diis error: 0.14357E-02
          max. resid. norm for Fia-block=  1.207D-04 for orbital    178a    alpha
          max. resid. fock norm         =  1.239D-04 for orbital    178a    alpha
          Delta Eig. =     0.0017606635 eV 
 
                                              current damping :  0.200
 ITERATION  ENERGY          1e-ENERGY        2e-ENERGY     RMS[dD(SAO)]   TOL
  62  -2282.9757350278    -19545.512892     9008.5489321    0.317D-06 0.166D-14
          Norm of current diis error: 0.14041E-02
          max. resid. norm for Fia-block=  1.662D-04 for orbital    178a    alpha
          max. resid. fock norm         =  1.707D-04 for orbital    178a    alpha
          Delta Eig. =     0.0019334479 eV 
 
                                              current damping :  0.250
 ITERATION  ENERGY          1e-ENERGY        2e-ENERGY     RMS[dD(SAO)]   TOL
  63  -2282.9757358597    -19545.512624     9008.5486632    0.406D-06 0.166D-14
          Norm of current diis error: 0.13700E-02
          max. resid. norm for Fia-block=  1.910D-04 for orbital    178a    alpha
          max. resid. fock norm         =  1.966D-04 for orbital    178a    alpha
          Delta Eig. =     0.0022906053 eV 
 
                                              current damping :  0.300
 ITERATION  ENERGY          1e-ENERGY        2e-ENERGY     RMS[dD(SAO)]   TOL
  64  -2282.9757368289    -19545.513983     9008.5500217    0.482D-06 0.131D-13
          Norm of current diis error: 0.13505E-02
          max. resid. norm for Fia-block=  2.266D-04 for orbital    178a    alpha
          max. resid. fock norm         =  2.336D-04 for orbital    178a    alpha
          Delta Eig. =     0.0022946134 eV 
 
                                              current damping :  0.150
 ITERATION  ENERGY          1e-ENERGY        2e-ENERGY     RMS[dD(SAO)]   TOL
  65  -2282.9757379111    -19545.514173     9008.5502107    0.558D-06 0.832D-14
          Norm of current diis error: 0.13373E-02
          max. resid. norm for Fia-block=  1.654D-04 for orbital    192a    beta 
          max. resid. fock norm         =  1.733D-04 for orbital    194a    beta 
 mo-orthogonalization: Cholesky decomposition
          Delta Eig. =     0.0021627140 eV 
 
                                              current damping :  0.100
 ITERATION  ENERGY          1e-ENERGY        2e-ENERGY     RMS[dD(SAO)]   TOL
  66  -2282.9757388346    -19545.515098     9008.5511346    0.484D-06 0.573D-14
          Norm of current diis error: 0.13427E-02
          max. resid. norm for Fia-block=  8.844D-05 for orbital    192a    beta 
          max. resid. fock norm         =  9.211D-05 for orbital    194a    beta 
          Delta Eig. =     0.0011779777 eV 
 
                                              current damping :  0.100
 ITERATION  ENERGY          1e-ENERGY        2e-ENERGY     RMS[dD(SAO)]   TOL
  67  -2282.9757393421    -19545.515114     9008.5511496    0.272D-06 0.482D-14
          Norm of current diis error: 0.13514E-02
          max. resid. norm for Fia-block=  3.944D-05 for orbital    185a    alpha
          max. resid. fock norm         =  4.053D-05 for orbital    194a    beta 
          Delta Eig. =     0.0005666123 eV 
 
                                              current damping :  0.100
 ITERATION  ENERGY          1e-ENERGY        2e-ENERGY     RMS[dD(SAO)]   TOL
  68  -2282.9757395571    -19545.515380     9008.5514157    0.118D-06 0.437D-14
          Norm of current diis error: 0.13597E-02
          max. resid. norm for Fia-block=  3.508D-05 for orbital    185a    alpha
          max. resid. fock norm         =  3.607D-05 for orbital    194a    beta 
          Delta Eig. =     0.0005062100 eV 
 
                                              current damping :  0.150
 ITERATION  ENERGY          1e-ENERGY        2e-ENERGY     RMS[dD(SAO)]   TOL
  69  -2282.9757397558    -19545.515327     9008.5513627    0.107D-06 0.404D-14
          Norm of current diis error: 0.13651E-02
          max. resid. norm for Fia-block=  5.690D-05 for orbital    192a    beta 
          max. resid. fock norm         =  5.917D-05 for orbital    194a    beta 
          Delta Eig. =     0.0007430829 eV 
 
                                              current damping :  0.200
 ITERATION  ENERGY          1e-ENERGY        2e-ENERGY     RMS[dD(SAO)]   TOL
  70  -2282.9757400716    -19545.515606     9008.5516414    0.165D-06 0.370D-14
          Norm of current diis error: 0.13728E-02
          max. resid. norm for Fia-block=  7.293D-05 for orbital    192a    beta 
          max. resid. fock norm         =  7.588D-05 for orbital    194a    beta 
 mo-orthogonalization: Cholesky decomposition
          Delta Eig. =     0.0008380957 eV 
 
                                              current damping :  0.100
 ITERATION  ENERGY          1e-ENERGY        2e-ENERGY     RMS[dD(SAO)]   TOL
  71  -2282.9757404639    -19545.515720     9008.5517543    0.205D-06 0.338D-14
          Norm of current diis error: 0.13824E-02
          max. resid. norm for Fia-block=  7.008D-05 for orbital    192a    beta 
          max. resid. fock norm         =  7.275D-05 for orbital    194a    beta 
          Delta Eig. =     0.0009285834 eV 
 
                                              current damping :  0.100
 ITERATION  ENERGY          1e-ENERGY        2e-ENERGY     RMS[dD(SAO)]   TOL
  72  -2282.9757408744    -19545.515979     9008.5520136    0.212D-06 0.307D-14
          Norm of current diis error: 0.13947E-02
          max. resid. norm for Fia-block=  5.361D-05 for orbital    185a    alpha
          max. resid. fock norm         =  5.544D-05 for orbital    194a    beta 
          Delta Eig. =     0.0006780190 eV 
 
                                              current damping :  0.100
 ITERATION  ENERGY          1e-ENERGY        2e-ENERGY     RMS[dD(SAO)]   TOL
  73  -2282.9757411901    -19545.516066     9008.5520997    0.163D-06 0.285D-14
          Norm of current diis error: 0.14051E-02
          max. resid. norm for Fia-block=  4.874D-05 for orbital    185a    alpha
          max. resid. fock norm         =  5.018D-05 for orbital    194a    beta 
          Delta Eig. =     0.0006389163 eV 
 
                                              current damping :  0.100
 ITERATION  ENERGY          1e-ENERGY        2e-ENERGY     RMS[dD(SAO)]   TOL
  74  -2282.9757414772    -19545.516224     9008.5522578    0.147D-06 0.265D-14
          Norm of current diis error: 0.14154E-02
          max. resid. norm for Fia-block=  5.323D-05 for orbital    185a    alpha
          max. resid. fock norm         =  5.458D-05 for orbital    194a    beta 
          Delta Eig. =     0.0006741021 eV 
 
                                              current damping :  0.100
 ITERATION  ENERGY          1e-ENERGY        2e-ENERGY     RMS[dD(SAO)]   TOL
  75  -2282.9757417932    -19545.516325     9008.5523584    0.160D-06 0.247D-14
          Norm of current diis error: 0.14266E-02
          max. resid. norm for Fia-block=  5.796D-05 for orbital    185a    alpha
          max. resid. fock norm         =  5.939D-05 for orbital    194a    beta 
 mo-orthogonalization: Cholesky decomposition
          Delta Eig. =     0.0007500547 eV 
 
                                              current damping :  0.100
 ITERATION  ENERGY          1e-ENERGY        2e-ENERGY     RMS[dD(SAO)]   TOL
  76  -2282.9757421399    -19545.516491     9008.5525243    0.174D-06 0.230D-14
          Norm of current diis error: 0.14395E-02
          max. resid. norm for Fia-block=  5.793D-05 for orbital    185a    alpha
          max. resid. fock norm         =  5.877D-05 for orbital    194a    beta 
          Delta Eig. =     0.0007304219 eV 
 
                                              current damping :  0.100
 ITERATION  ENERGY          1e-ENERGY        2e-ENERGY     RMS[dD(SAO)]   TOL
  77  -2282.9757424861    -19545.516608     9008.5526410    0.172D-06 0.216D-14
          Norm of current diis error: 0.14527E-02
          max. resid. norm for Fia-block=  5.354D-05 for orbital    185a    alpha
          max. resid. fock norm         =  5.387D-05 for orbital    194a    beta 
          Delta Eig. =     0.0006785318 eV 
 
                                              current damping :  0.100
 ITERATION  ENERGY          1e-ENERGY        2e-ENERGY     RMS[dD(SAO)]   TOL
  78  -2282.9757428069    -19545.516742     9008.5527746    0.158D-06 0.204D-14
          Norm of current diis error: 0.14657E-02
          max. resid. norm for Fia-block=  5.268D-05 for orbital    185a    alpha
          max. resid. fock norm         =  5.275D-05 for orbital    185a    alpha
          Delta Eig. =     0.0006554053 eV 
 
                                              current damping :  0.100
 ITERATION  ENERGY          1e-ENERGY        2e-ENERGY     RMS[dD(SAO)]   TOL
  79  -2282.9757431230    -19545.516845     9008.5528769    0.154D-06 0.193D-14
          Norm of current diis error: 0.14787E-02
          max. resid. norm for Fia-block=  5.488D-05 for orbital    185a    alpha
          max. resid. fock norm         =  5.496D-05 for orbital    185a    alpha
          Delta Eig. =     0.0006848939 eV 
 
                                              current damping :  0.100
 ITERATION  ENERGY          1e-ENERGY        2e-ENERGY     RMS[dD(SAO)]   TOL
  80  -2282.9757434546    -19545.516968     9008.5530001    0.159D-06 0.183D-14
          Norm of current diis error: 0.14927E-02
          max. resid. norm for Fia-block=  5.638D-05 for orbital    185a    alpha
          max. resid. fock norm         =  5.645D-05 for orbital    185a    alpha
 mo-orthogonalization: Cholesky decomposition
          Delta Eig. =     0.0006956269 eV 
 
                                              current damping :  0.100
 ITERATION  ENERGY          1e-ENERGY        2e-ENERGY     RMS[dD(SAO)]   TOL
  81  -2282.9757437970    -19545.517077     9008.5531087    0.163D-06 0.174D-14
          Norm of current diis error: 0.15074E-02
          max. resid. norm for Fia-block=  5.581D-05 for orbital    185a    alpha
          max. resid. fock norm         =  5.588D-05 for orbital    185a    alpha
          Delta Eig. =     0.0006874153 eV 
 
                                              current damping :  0.100
 ITERATION  ENERGY          1e-ENERGY        2e-ENERGY     RMS[dD(SAO)]   TOL
  82  -2282.9757441375    -19545.517193     9008.5532241    0.160D-06 0.166D-14
          Norm of current diis error: 0.15224E-02
          max. resid. norm for Fia-block=  5.462D-05 for orbital    185a    alpha
          max. resid. fock norm         =  5.469D-05 for orbital    185a    alpha
          Delta Eig. =     0.0006656410 eV 
 
                                              current damping :  0.100
 ITERATION  ENERGY          1e-ENERGY        2e-ENERGY     RMS[dD(SAO)]   TOL
  83  -2282.9757444735    -19545.517294     9008.5533244    0.156D-06 0.166D-14
          Norm of current diis error: 0.15374E-02
          max. resid. norm for Fia-block=  5.509D-05 for orbital    185a    alpha
          max. resid. fock norm         =  5.516D-05 for orbital    185a    alpha
          Delta Eig. =     0.0006690016 eV 
 
                                              current damping :  0.100
 ITERATION  ENERGY          1e-ENERGY        2e-ENERGY     RMS[dD(SAO)]   TOL
  84  -2282.9757448133    -19545.517399     9008.5534291    0.156D-06 0.166D-14
          Norm of current diis error: 0.15528E-02
          max. resid. norm for Fia-block=  5.628D-05 for orbital    185a    alpha
          max. resid. fock norm         =  5.635D-05 for orbital    185a    alpha
          Delta Eig. =     0.0006782225 eV 
 
                                              current damping :  0.100
 ITERATION  ENERGY          1e-ENERGY        2e-ENERGY     RMS[dD(SAO)]   TOL
  85  -2282.9757451635    -19545.517498     9008.5535280    0.159D-06 0.131D-13
          Norm of current diis error: 0.15688E-02
          max. resid. norm for Fia-block=  5.675D-05 for orbital    185a    alpha
          max. resid. fock norm         =  5.683D-05 for orbital    185a    alpha
 mo-orthogonalization: Cholesky decomposition
          Delta Eig. =     0.0006809267 eV 
 
                                              current damping :  0.100
 ITERATION  ENERGY          1e-ENERGY        2e-ENERGY     RMS[dD(SAO)]   TOL
  86  -2282.9757455186    -19545.517599     9008.5536288    0.159D-06 0.832D-14
          Norm of current diis error: 0.15852E-02
          max. resid. norm for Fia-block=  5.655D-05 for orbital    185a    alpha
          max. resid. fock norm         =  5.662D-05 for orbital    185a    alpha
          Delta Eig. =     0.0006736841 eV 
 
                                              current damping :  0.100
 ITERATION  ENERGY          1e-ENERGY        2e-ENERGY     RMS[dD(SAO)]   TOL
  87  -2282.9757458752    -19545.517694     9008.5537233    0.157D-06 0.554D-14
          Norm of current diis error: 0.16019E-02
          max. resid. norm for Fia-block=  5.659D-05 for orbital    185a    alpha
          max. resid. fock norm         =  5.666D-05 for orbital    185a    alpha
          Delta Eig. =     0.0006704973 eV 
 
                                              current damping :  0.100
 ITERATION  ENERGY          1e-ENERGY        2e-ENERGY     RMS[dD(SAO)]   TOL
  88  -2282.9757462349    -19545.517788     9008.5538173    0.157D-06 0.418D-14
          Norm of current diis error: 0.16188E-02
          max. resid. norm for Fia-block=  5.730D-05 for orbital    185a    alpha
          max. resid. fock norm         =  5.737D-05 for orbital    185a    alpha
          Delta Eig. =     0.0006745109 eV 
 
                                              current damping :  0.100
 ITERATION  ENERGY          1e-ENERGY        2e-ENERGY     RMS[dD(SAO)]   TOL
  89  -2282.9757466015    -19545.517879     9008.5539079    0.158D-06 0.340D-14
          Norm of current diis error: 0.16361E-02
          max. resid. norm for Fia-block=  5.800D-05 for orbital    185a    alpha
          max. resid. fock norm         =  5.808D-05 for orbital    185a    alpha
          Delta Eig. =     0.0006790931 eV 
 
                                              current damping :  0.100
 ITERATION  ENERGY          1e-ENERGY        2e-ENERGY     RMS[dD(SAO)]   TOL
  90  -2282.9757469761    -19545.517970     9008.5539985    0.159D-06 0.290D-14
          Norm of current diis error: 0.16539E-02
          max. resid. norm for Fia-block=  5.831D-05 for orbital    185a    alpha
          max. resid. fock norm         =  5.838D-05 for orbital    185a    alpha
 mo-orthogonalization: Cholesky decomposition
          Delta Eig. =     0.0006785294 eV 
 
                                              current damping :  0.100
 ITERATION  ENERGY          1e-ENERGY        2e-ENERGY     RMS[dD(SAO)]   TOL
  91  -2282.9757473556    -19545.518058     9008.5540860    0.159D-06 0.256D-14
          Norm of current diis error: 0.16721E-02
          max. resid. norm for Fia-block=  5.853D-05 for orbital    185a    alpha
          max. resid. fock norm         =  5.861D-05 for orbital    185a    alpha
          Delta Eig. =     0.0006772409 eV 
 
                                              current damping :  0.100
 ITERATION  ENERGY          1e-ENERGY        2e-ENERGY     RMS[dD(SAO)]   TOL
  92  -2282.9757477398    -19545.518145     9008.5541721    0.158D-06 0.231D-14
          Norm of current diis error: 0.16905E-02
          max. resid. norm for Fia-block=  5.901D-05 for orbital    185a    alpha
          max. resid. fock norm         =  5.909D-05 for orbital    185a    alpha
          Delta Eig. =     0.0006787315 eV 
 
                                              current damping :  0.100
 ITERATION  ENERGY          1e-ENERGY        2e-ENERGY     RMS[dD(SAO)]   TOL
  93  -2282.9757481306    -19545.518229     9008.5542559    0.159D-06 0.213D-14
          Norm of current diis error: 0.17092E-02
          max. resid. norm for Fia-block=  5.969D-05 for orbital    185a    alpha
          max. resid. fock norm         =  5.977D-05 for orbital    185a    alpha
          Delta Eig. =     0.0006825829 eV 
 
                                              current damping :  0.100
 ITERATION  ENERGY          1e-ENERGY        2e-ENERGY     RMS[dD(SAO)]   TOL
  94  -2282.9757485294    -19545.518312     9008.5543388    0.160D-06 0.198D-14
          Norm of current diis error: 0.17284E-02
          max. resid. norm for Fia-block=  6.023D-05 for orbital    185a    alpha
          max. resid. fock norm         =  6.031D-05 for orbital    185a    alpha
          Delta Eig. =     0.0006847883 eV 
 
                                              current damping :  0.100
 ITERATION  ENERGY          1e-ENERGY        2e-ENERGY     RMS[dD(SAO)]   TOL
  95  -2282.9757489352    -19545.518394     9008.5544198    0.160D-06 0.186D-14
          Norm of current diis error: 0.17479E-02
          max. resid. norm for Fia-block=  6.065D-05 for orbital    185a    alpha
          max. resid. fock norm         =  6.073D-05 for orbital    185a    alpha
 mo-orthogonalization: Cholesky decomposition
          Delta Eig. =     0.0006856045 eV 
 
                                              current damping :  0.100
 ITERATION  ENERGY          1e-ENERGY        2e-ENERGY     RMS[dD(SAO)]   TOL
  96  -2282.9757493482    -19545.518474     9008.5544995    0.161D-06 0.176D-14
          Norm of current diis error: 0.17677E-02
          max. resid. norm for Fia-block=  6.114D-05 for orbital    185a    alpha
          max. resid. fock norm         =  6.122D-05 for orbital    185a    alpha
          Delta Eig. =     0.0006871498 eV 
 
                                              current damping :  0.100
 ITERATION  ENERGY          1e-ENERGY        2e-ENERGY     RMS[dD(SAO)]   TOL
  97  -2282.9757497677    -19545.518552     9008.5545775    0.161D-06 0.167D-14
          Norm of current diis error: 0.17878E-02
          max. resid. norm for Fia-block=  6.177D-05 for orbital    185a    alpha
          max. resid. fock norm         =  6.185D-05 for orbital    185a    alpha
          Delta Eig. =     0.0006901967 eV 
 
                                              current damping :  0.100
 ITERATION  ENERGY          1e-ENERGY        2e-ENERGY     RMS[dD(SAO)]   TOL
  98  -2282.9757501966    -19545.518629     9008.5546543    0.162D-06 0.166D-14
          Norm of current diis error: 0.18084E-02
          max. resid. norm for Fia-block=  6.240D-05 for orbital    185a    alpha
          max. resid. fock norm         =  6.253D-05 for orbital    184a    alpha
          Delta Eig. =     0.0006933185 eV 
 
                                              current damping :  0.100
 ITERATION  ENERGY          1e-ENERGY        2e-ENERGY     RMS[dD(SAO)]   TOL
  99  -2282.9757506338    -19545.518705     9008.5547298    0.162D-06 0.166D-14
          Norm of current diis error: 0.18293E-02
          max. resid. norm for Fia-block=  6.301D-05 for orbital    184a    alpha
          max. resid. fock norm         =  6.331D-05 for orbital    184a    alpha
          Delta Eig. =     0.0006955876 eV 
 
                                              current damping :  0.100
 ITERATION  ENERGY          1e-ENERGY        2e-ENERGY     RMS[dD(SAO)]   TOL
 100  -2282.9757510777    -19545.518780     9008.5548040    0.163D-06 0.166D-14
          Norm of current diis error: 0.18505E-02
          max. resid. norm for Fia-block=  6.380D-05 for orbital    184a    alpha
          max. resid. fock norm         =  6.411D-05 for orbital    184a    alpha
 mo-orthogonalization: Cholesky decomposition
          Delta Eig. =     0.0006977810 eV 
 
                                              current damping :  0.100
 ITERATION  ENERGY          1e-ENERGY        2e-ENERGY     RMS[dD(SAO)]   TOL
 101  -2282.9757515289    -19545.518853     9008.5548769    0.164D-06 0.166D-14
          Norm of current diis error: 0.18721E-02
          max. resid. norm for Fia-block=  6.467D-05 for orbital    184a    alpha
          max. resid. fock norm         =  6.497D-05 for orbital    184a    alpha
          Delta Eig. =     0.0007007224 eV 
 
                                              current damping :  0.100
 ITERATION  ENERGY          1e-ENERGY        2e-ENERGY     RMS[dD(SAO)]   TOL
 102  -2282.9757519924    -19545.518926     9008.5549487    0.164D-06 0.166D-14
          Norm of current diis error: 0.18940E-02
          max. resid. norm for Fia-block=  6.558D-05 for orbital    184a    alpha
          max. resid. fock norm         =  6.588D-05 for orbital    184a    alpha
          Delta Eig. =     0.0007040614 eV 
 
                                              current damping :  0.100
 ITERATION  ENERGY          1e-ENERGY        2e-ENERGY     RMS[dD(SAO)]   TOL
 103  -2282.9757524668    -19545.518997     9008.5550194    0.165D-06 0.166D-14
          Norm of current diis error: 0.19163E-02
          max. resid. norm for Fia-block=  6.647D-05 for orbital    184a    alpha
          max. resid. fock norm         =  6.678D-05 for orbital    184a    alpha
          Delta Eig. =     0.0007071635 eV 
 
                                              current damping :  0.100
 ITERATION  ENERGY          1e-ENERGY        2e-ENERGY     RMS[dD(SAO)]   TOL
 104  -2282.9757529489    -19545.519067     9008.5550891    0.166D-06 0.166D-14
          Norm of current diis error: 0.19390E-02
          max. resid. norm for Fia-block=  6.736D-05 for orbital    184a    alpha
          max. resid. fock norm         =  6.766D-05 for orbital    184a    alpha
          Delta Eig. =     0.0007100404 eV 
 
                                              current damping :  0.100
 ITERATION  ENERGY          1e-ENERGY        2e-ENERGY     RMS[dD(SAO)]   TOL
 105  -2282.9757534429    -19545.519136     9008.5551576    0.167D-06 0.166D-14
          Norm of current diis error: 0.19620E-02
          max. resid. norm for Fia-block=  6.828D-05 for orbital    184a    alpha
          max. resid. fock norm         =  6.858D-05 for orbital    184a    alpha
 mo-orthogonalization: Cholesky decomposition
          Delta Eig. =     0.0007131987 eV 
 
                                              current damping :  0.100
 ITERATION  ENERGY          1e-ENERGY        2e-ENERGY     RMS[dD(SAO)]   TOL
 106  -2282.9757539477    -19545.519204     9008.5552252    0.168D-06 0.131D-13
          Norm of current diis error: 0.19854E-02
          max. resid. norm for Fia-block=  6.924D-05 for orbital    184a    alpha
          max. resid. fock norm         =  6.955D-05 for orbital    184a    alpha
          Delta Eig. =     0.0007167039 eV 
 
                                              current damping :  0.100
 ITERATION  ENERGY          1e-ENERGY        2e-ENERGY     RMS[dD(SAO)]   TOL
 107  -2282.9757544608    -19545.519271     9008.5552918    0.168D-06 0.832D-14
          Norm of current diis error: 0.20092E-02
          max. resid. norm for Fia-block=  7.021D-05 for orbital    184a    alpha
          max. resid. fock norm         =  7.052D-05 for orbital    184a    alpha
          Delta Eig. =     0.0007202382 eV 
 
                                              current damping :  0.100
 ITERATION  ENERGY          1e-ENERGY        2e-ENERGY     RMS[dD(SAO)]   TOL
 108  -2282.9757549863    -19545.519337     9008.5553575    0.169D-06 0.551D-14
          Norm of current diis error: 0.20333E-02
          max. resid. norm for Fia-block=  7.119D-05 for orbital    184a    alpha
          max. resid. fock norm         =  7.149D-05 for orbital    184a    alpha
          Delta Eig. =     0.0007236604 eV 
 
                                              current damping :  0.100
 ITERATION  ENERGY          1e-ENERGY        2e-ENERGY     RMS[dD(SAO)]   TOL
 109  -2282.9757555223    -19545.519403     9008.5554223    0.170D-06 0.421D-14
          Norm of current diis error: 0.20578E-02
          max. resid. norm for Fia-block=  7.218D-05 for orbital    184a    alpha
          max. resid. fock norm         =  7.248D-05 for orbital    184a    alpha
          Delta Eig. =     0.0007271492 eV 
 
                                              current damping :  0.100
 ITERATION  ENERGY          1e-ENERGY        2e-ENERGY     RMS[dD(SAO)]   TOL
 110  -2282.9757560700    -19545.519467     9008.5554863    0.171D-06 0.346D-14
          Norm of current diis error: 0.20827E-02
          max. resid. norm for Fia-block=  7.320D-05 for orbital    184a    alpha
          max. resid. fock norm         =  7.350D-05 for orbital    184a    alpha
 mo-orthogonalization: Cholesky decomposition
          Delta Eig. =     0.0007308574 eV 
 
                                              current damping :  0.100
 ITERATION  ENERGY          1e-ENERGY        2e-ENERGY     RMS[dD(SAO)]   TOL
 111  -2282.9757566300    -19545.519531     9008.5555494    0.172D-06 0.297D-14
          Norm of current diis error: 0.21079E-02
          max. resid. norm for Fia-block=  7.424D-05 for orbital    184a    alpha
          max. resid. fock norm         =  7.454D-05 for orbital    184a    alpha
          Delta Eig. =     0.0007346788 eV 
 
                                              current damping :  0.100
 ITERATION  ENERGY          1e-ENERGY        2e-ENERGY     RMS[dD(SAO)]   TOL
 112  -2282.9757572022    -19545.519594     9008.5556118    0.173D-06 0.262D-14
          Norm of current diis error: 0.21336E-02
          max. resid. norm for Fia-block=  7.529D-05 for orbital    184a    alpha
          max. resid. fock norm         =  7.559D-05 for orbital    184a    alpha
          Delta Eig. =     0.0007384853 eV 
 
                                              current damping :  0.100
 ITERATION  ENERGY          1e-ENERGY        2e-ENERGY     RMS[dD(SAO)]   TOL
 113  -2282.9757577876    -19545.519656     9008.5556734    0.174D-06 0.237D-14
          Norm of current diis error: 0.21596E-02
          max. resid. norm for Fia-block=  7.635D-05 for orbital    184a    alpha
          max. resid. fock norm         =  7.666D-05 for orbital    184a    alpha
          Delta Eig. =     0.0007423117 eV 
 
                                              current damping :  0.100
 ITERATION  ENERGY          1e-ENERGY        2e-ENERGY     RMS[dD(SAO)]   TOL
 114  -2282.9757583862    -19545.519717     9008.5557342    0.175D-06 0.218D-14
          Norm of current diis error: 0.21860E-02
          max. resid. norm for Fia-block=  7.744D-05 for orbital    184a    alpha
          max. resid. fock norm         =  7.775D-05 for orbital    184a    alpha
          Delta Eig. =     0.0007462544 eV 
 
                                              current damping :  0.100
 ITERATION  ENERGY          1e-ENERGY        2e-ENERGY     RMS[dD(SAO)]   TOL
 115  -2282.9757589980    -19545.519778     9008.5557944    0.176D-06 0.202D-14
          Norm of current diis error: 0.22128E-02
          max. resid. norm for Fia-block=  7.855D-05 for orbital    184a    alpha
          max. resid. fock norm         =  7.886D-05 for orbital    184a    alpha
 mo-orthogonalization: Cholesky decomposition
          Delta Eig. =     0.0007503122 eV 
 
                                              current damping :  0.100
 ITERATION  ENERGY          1e-ENERGY        2e-ENERGY     RMS[dD(SAO)]   TOL
 116  -2282.9757596239    -19545.519838     9008.5558539    0.177D-06 0.190D-14
          Norm of current diis error: 0.22400E-02
          max. resid. norm for Fia-block=  7.967D-05 for orbital    184a    alpha
          max. resid. fock norm         =  7.998D-05 for orbital    184a    alpha
          Delta Eig. =     0.0007544092 eV 
 
                                              current damping :  0.100
 ITERATION  ENERGY          1e-ENERGY        2e-ENERGY     RMS[dD(SAO)]   TOL
 117  -2282.9757602646    -19545.519898     9008.5559127    0.178D-06 0.180D-14
          Norm of current diis error: 0.22677E-02
          max. resid. norm for Fia-block=  8.081D-05 for orbital    184a    alpha
          max. resid. fock norm         =  8.112D-05 for orbital    184a    alpha
          Delta Eig. =     0.0007585292 eV 
 
                                              current damping :  0.100
 ITERATION  ENERGY          1e-ENERGY        2e-ENERGY     RMS[dD(SAO)]   TOL
 118  -2282.9757609196    -19545.519957     9008.5559710    0.179D-06 0.171D-14
          Norm of current diis error: 0.22957E-02
          max. resid. norm for Fia-block=  8.197D-05 for orbital    184a    alpha
          max. resid. fock norm         =  8.228D-05 for orbital    184a    alpha
          Delta Eig. =     0.0007627173 eV 
 
                                              current damping :  0.100
 ITERATION  ENERGY          1e-ENERGY        2e-ENERGY     RMS[dD(SAO)]   TOL
 119  -2282.9757615894    -19545.520015     9008.5560286    0.180D-06 0.166D-14
          Norm of current diis error: 0.23241E-02
          max. resid. norm for Fia-block=  8.315D-05 for orbital    184a    alpha
          max. resid. fock norm         =  8.346D-05 for orbital    184a    alpha
          Delta Eig. =     0.0007669944 eV 
 
                                              current damping :  0.100
 ITERATION  ENERGY          1e-ENERGY        2e-ENERGY     RMS[dD(SAO)]   TOL
 120  -2282.9757622745    -19545.520073     9008.5560857    0.181D-06 0.166D-14
          Norm of current diis error: 0.23530E-02
          max. resid. norm for Fia-block=  8.435D-05 for orbital    184a    alpha
          max. resid. fock norm         =  8.466D-05 for orbital    184a    alpha
 mo-orthogonalization: Cholesky decomposition
          Delta Eig. =     0.0007713320 eV 
 
                                              current damping :  0.100
 ITERATION  ENERGY          1e-ENERGY        2e-ENERGY     RMS[dD(SAO)]   TOL
 121  -2282.9757629779    -19545.520130     9008.5561422    0.182D-06 0.166D-14
          Norm of current diis error: 0.23823E-02
          max. resid. norm for Fia-block=  8.557D-05 for orbital    184a    alpha
          max. resid. fock norm         =  8.588D-05 for orbital    184a    alpha
          Delta Eig. =     0.0007757050 eV 
 
                                              current damping :  0.100
 ITERATION  ENERGY          1e-ENERGY        2e-ENERGY     RMS[dD(SAO)]   TOL
 122  -2282.9757636977    -19545.520187     9008.5561982    0.183D-06 0.166D-14
          Norm of current diis error: 0.24120E-02
          max. resid. norm for Fia-block=  8.680D-05 for orbital    184a    alpha
          max. resid. fock norm         =  8.712D-05 for orbital    184a    alpha
          Delta Eig. =     0.0007801277 eV 
 
                                              current damping :  0.100
 ITERATION  ENERGY          1e-ENERGY        2e-ENERGY     RMS[dD(SAO)]   TOL
 123  -2282.9757644291    -19545.520243     9008.5562538    0.185D-06 0.166D-14
          Norm of current diis error: 0.24421E-02
          max. resid. norm for Fia-block=  8.806D-05 for orbital    184a    alpha
          max. resid. fock norm         =  8.837D-05 for orbital    184a    alpha
          Delta Eig. =     0.0007846182 eV 
 
                                              current damping :  0.100
 ITERATION  ENERGY          1e-ENERGY        2e-ENERGY     RMS[dD(SAO)]   TOL
 124  -2282.9757651790    -19545.520299     9008.5563088    0.186D-06 0.166D-14
          Norm of current diis error: 0.24727E-02
          max. resid. norm for Fia-block=  8.934D-05 for orbital    184a    alpha
          max. resid. fock norm         =  8.965D-05 for orbital    184a    alpha
          Delta Eig. =     0.0007891703 eV 
 
                                              current damping :  0.100
 ITERATION  ENERGY          1e-ENERGY        2e-ENERGY     RMS[dD(SAO)]   TOL
 125  -2282.9757659491    -19545.520354     9008.5563634    0.187D-06 0.166D-14
          Norm of current diis error: 0.25037E-02
          max. resid. norm for Fia-block=  9.063D-05 for orbital    184a    alpha
          max. resid. fock norm         =  9.095D-05 for orbital    184a    alpha
 mo-orthogonalization: Cholesky decomposition
          Delta Eig. =     0.0007937673 eV 
 
                                              current damping :  0.100
 ITERATION  ENERGY          1e-ENERGY        2e-ENERGY     RMS[dD(SAO)]   TOL
 126  -2282.9757667337    -19545.520409     9008.5564176    0.188D-06 0.166D-14
          Norm of current diis error: 0.25352E-02
          max. resid. norm for Fia-block=  9.195D-05 for orbital    184a    alpha
          max. resid. fock norm         =  9.226D-05 for orbital    184a    alpha
          Delta Eig. =     0.0007984087 eV 
 
                                              current damping :  0.100
 ITERATION  ENERGY          1e-ENERGY        2e-ENERGY     RMS[dD(SAO)]   TOL
 127  -2282.9757675486    -19545.520464     9008.5564714    0.189D-06 0.131D-13
          Norm of current diis error: 0.25671E-02
          max. resid. norm for Fia-block=  9.328D-05 for orbital    184a    alpha
          max. resid. fock norm         =  9.360D-05 for orbital    184a    alpha
          Delta Eig. =     0.0008031054 eV 
 
                                              current damping :  0.100
 ITERATION  ENERGY          1e-ENERGY        2e-ENERGY     RMS[dD(SAO)]   TOL
 128  -2282.9757683757    -19545.520518     9008.5565248    0.190D-06 0.832D-14
          Norm of current diis error: 0.25995E-02
          max. resid. norm for Fia-block=  9.464D-05 for orbital    184a    alpha
          max. resid. fock norm         =  9.496D-05 for orbital    184a    alpha
          Delta Eig. =     0.0008078456 eV 
 
                                              current damping :  0.100
 ITERATION  ENERGY          1e-ENERGY        2e-ENERGY     RMS[dD(SAO)]   TOL
 129  -2282.9757692224    -19545.520572     9008.5565778    0.192D-06 0.551D-14
          Norm of current diis error: 0.26324E-02
          max. resid. norm for Fia-block=  9.601D-05 for orbital    184a    alpha
          max. resid. fock norm         =  9.633D-05 for orbital    184a    alpha
          Delta Eig. =     0.0007806396 eV 
 
                                              current damping :  0.100
 ITERATION  ENERGY          1e-ENERGY        2e-ENERGY     RMS[dD(SAO)]   TOL
 130  -2282.9757700896    -19545.520625     9008.5566305    0.193D-06 0.421D-14
          Norm of current diis error: 0.26657E-02
          max. resid. norm for Fia-block=  9.741D-05 for orbital    184a    alpha
          max. resid. fock norm         =  9.773D-05 for orbital    184a    alpha
 mo-orthogonalization: Cholesky decomposition
          Delta Eig. =     0.0008175065 eV 
 
                                              current damping :  0.100
 ITERATION  ENERGY          1e-ENERGY        2e-ENERGY     RMS[dD(SAO)]   TOL
 131  -2282.9757709776    -19545.520679     9008.5566829    0.194D-06 0.346D-14
          Norm of current diis error: 0.26995E-02
          max. resid. norm for Fia-block=  9.883D-05 for orbital    184a    alpha
          max. resid. fock norm         =  9.915D-05 for orbital    184a    alpha
          Delta Eig. =     0.0008224065 eV 
 
                                              current damping :  0.100
 ITERATION  ENERGY          1e-ENERGY        2e-ENERGY     RMS[dD(SAO)]   TOL
 132  -2282.9757718881    -19545.520732     9008.5567350    0.195D-06 0.297D-14
          Norm of current diis error: 0.27338E-02
          max. resid. norm for Fia-block=  1.003D-04 for orbital    184a    alpha
          max. resid. fock norm         =  1.006D-04 for orbital    184a    alpha
          Delta Eig. =     0.0008273555 eV 
 
                                              current damping :  0.100
 ITERATION  ENERGY          1e-ENERGY        2e-ENERGY     RMS[dD(SAO)]   TOL
 133  -2282.9757728197    -19545.520784     9008.5567868    0.197D-06 0.262D-14
          Norm of current diis error: 0.27685E-02
          max. resid. norm for Fia-block=  1.017D-04 for orbital    184a    alpha
          max. resid. fock norm         =  1.021D-04 for orbital    184a    alpha
          Delta Eig. =     0.0008323527 eV 
 
                                              current damping :  0.100
 ITERATION  ENERGY          1e-ENERGY        2e-ENERGY     RMS[dD(SAO)]   TOL
 134  -2282.9757737753    -19545.520837     9008.5568384    0.198D-06 0.236D-14
          Norm of current diis error: 0.28038E-02
          max. resid. norm for Fia-block=  1.032D-04 for orbital    184a    alpha
          max. resid. fock norm         =  1.035D-04 for orbital    184a    alpha
          Delta Eig. =     0.0008373957 eV 
 
                                              current damping :  0.100
 ITERATION  ENERGY          1e-ENERGY        2e-ENERGY     RMS[dD(SAO)]   TOL
 135  -2282.9757747531    -19545.520889     9008.5568897    0.199D-06 0.217D-14
          Norm of current diis error: 0.28395E-02
          max. resid. norm for Fia-block=  1.047D-04 for orbital    184a    alpha
          max. resid. fock norm         =  1.050D-04 for orbital    184a    alpha
 mo-orthogonalization: Cholesky decomposition
          Delta Eig. =     0.0008424850 eV 
 
                                              current damping :  0.100
 ITERATION  ENERGY          1e-ENERGY        2e-ENERGY     RMS[dD(SAO)]   TOL
 136  -2282.9757757557    -19545.520941     9008.5569408    0.200D-06 0.201D-14
          Norm of current diis error: 0.28758E-02
          max. resid. norm for Fia-block=  1.062D-04 for orbital    184a    alpha
          max. resid. fock norm         =  1.066D-04 for orbital    184a    alpha
          Delta Eig. =     0.0008476226 eV 
 
                                              current damping :  0.100
 ITERATION  ENERGY          1e-ENERGY        2e-ENERGY     RMS[dD(SAO)]   TOL
 137  -2282.9757767832    -19545.520993     9008.5569917    0.202D-06 0.189D-14
          Norm of current diis error: 0.29126E-02
          max. resid. norm for Fia-block=  1.078D-04 for orbital    184a    alpha
          max. resid. fock norm         =  1.081D-04 for orbital    184a    alpha
          Delta Eig. =     0.0008528084 eV 
 
                                              current damping :  0.100
 ITERATION  ENERGY          1e-ENERGY        2e-ENERGY     RMS[dD(SAO)]   TOL
 138  -2282.9757778357    -19545.521045     9008.5570425    0.203D-06 0.179D-14
          Norm of current diis error: 0.29499E-02
          max. resid. norm for Fia-block=  1.094D-04 for orbital    184a    alpha
          max. resid. fock norm         =  1.097D-04 for orbital    184a    alpha
          Delta Eig. =     0.0008580400 eV 
 
                                              current damping :  0.100
 ITERATION  ENERGY          1e-ENERGY        2e-ENERGY     RMS[dD(SAO)]   TOL
 139  -2282.9757789145    -19545.521097     9008.5570931    0.204D-06 0.170D-14
          Norm of current diis error: 0.29877E-02
          max. resid. norm for Fia-block=  1.110D-04 for orbital    184a    alpha
          max. resid. fock norm         =  1.113D-04 for orbital    184a    alpha
          Delta Eig. =     0.0008633174 eV 
 
                                              current damping :  0.100
 ITERATION  ENERGY          1e-ENERGY        2e-ENERGY     RMS[dD(SAO)]   TOL
 140  -2282.9757800194    -19545.521148     9008.5571435    0.206D-06 0.166D-14
          Norm of current diis error: 0.30261E-02
          max. resid. norm for Fia-block=  1.126D-04 for orbital    184a    alpha
          max. resid. fock norm         =  1.129D-04 for orbital    184a    alpha
 mo-orthogonalization: Cholesky decomposition
          Delta Eig. =     0.0008686414 eV 
 
                                              current damping :  0.100
 ITERATION  ENERGY          1e-ENERGY        2e-ENERGY     RMS[dD(SAO)]   TOL
 141  -2282.9757811506    -19545.521200     9008.5571938    0.207D-06 0.166D-14
          Norm of current diis error: 0.30650E-02
          max. resid. norm for Fia-block=  1.142D-04 for orbital    184a    alpha
          max. resid. fock norm         =  1.146D-04 for orbital    184a    alpha
          Delta Eig. =     0.0008740125 eV 
 
                                              current damping :  0.100
 ITERATION  ENERGY          1e-ENERGY        2e-ENERGY     RMS[dD(SAO)]   TOL
 142  -2282.9757823099    -19545.521251     9008.5572440    0.208D-06 0.166D-14
          Norm of current diis error: 0.31045E-02
          max. resid. norm for Fia-block=  1.159D-04 for orbital    184a    alpha
          max. resid. fock norm         =  1.162D-04 for orbital    184a    alpha
          Delta Eig. =     0.0008794296 eV 
 
                                              current damping :  0.100
 ITERATION  ENERGY          1e-ENERGY        2e-ENERGY     RMS[dD(SAO)]   TOL
 143  -2282.9757834973    -19545.521302     9008.5572942    0.210D-06 0.166D-14
          Norm of current diis error: 0.31445E-02
          max. resid. norm for Fia-block=  1.176D-04 for orbital    184a    alpha
          max. resid. fock norm         =  1.179D-04 for orbital    184a    alpha
          Delta Eig. =     0.0008848921 eV 
 
                                              current damping :  0.100
 ITERATION  ENERGY          1e-ENERGY        2e-ENERGY     RMS[dD(SAO)]   TOL
 144  -2282.9757847111    -19545.521354     9008.5573442    0.211D-06 0.166D-14
          Norm of current diis error: 0.31851E-02
          max. resid. norm for Fia-block=  1.193D-04 for orbital    184a    alpha
          max. resid. fock norm         =  1.196D-04 for orbital    184a    alpha
          Delta Eig. =     0.0008904007 eV 
 
                                              current damping :  0.100
 ITERATION  ENERGY          1e-ENERGY        2e-ENERGY     RMS[dD(SAO)]   TOL
 145  -2282.9757859595    -19545.521405     9008.5573942    0.213D-06 0.166D-14
          Norm of current diis error: 0.32262E-02
          max. resid. norm for Fia-block=  1.210D-04 for orbital    184a    alpha
          max. resid. fock norm         =  1.214D-04 for orbital    184a    alpha
 mo-orthogonalization: Cholesky decomposition
          Delta Eig. =     0.0008959559 eV 
 
                                              current damping :  0.100
 ITERATION  ENERGY          1e-ENERGY        2e-ENERGY     RMS[dD(SAO)]   TOL
 146  -2282.9757872414    -19545.521456     9008.5574442    0.214D-06 0.166D-14
          Norm of current diis error: 0.32680E-02
          max. resid. norm for Fia-block=  1.228D-04 for orbital    184a    alpha
          max. resid. fock norm         =  1.232D-04 for orbital    184a    alpha
          Delta Eig. =     0.0009015571 eV 
 
                                              current damping :  0.100
 ITERATION  ENERGY          1e-ENERGY        2e-ENERGY     RMS[dD(SAO)]   TOL
 147  -2282.9757885638    -19545.521508     9008.5574942    0.215D-06 0.166D-14
          Norm of current diis error: 0.33103E-02
          max. resid. norm for Fia-block=  1.246D-04 for orbital    184a    alpha
          max. resid. fock norm         =  1.249D-04 for orbital    184a    alpha
          Delta Eig. =     0.0009072040 eV 
 
                                              current damping :  0.100
 ITERATION  ENERGY          1e-ENERGY        2e-ENERGY     RMS[dD(SAO)]   TOL
 148  -2282.9757899130    -19545.521559     9008.5575442    0.217D-06 0.131D-13
          Norm of current diis error: 0.33532E-02
          max. resid. norm for Fia-block=  1.264D-04 for orbital    184a    alpha
          max. resid. fock norm         =  1.268D-04 for orbital    184a    alpha
          Delta Eig. =     0.0009128967 eV 
 
                                              current damping :  0.100
 ITERATION  ENERGY          1e-ENERGY        2e-ENERGY     RMS[dD(SAO)]   TOL
 149  -2282.9757912939    -19545.521610     9008.5575942    0.218D-06 0.832D-14
          Norm of current diis error: 0.33967E-02
          max. resid. norm for Fia-block=  1.283D-04 for orbital    184a    alpha
          max. resid. fock norm         =  1.286D-04 for orbital    184a    alpha
          Delta Eig. =     0.0009186359 eV 
 
                                              current damping :  0.100
 ITERATION  ENERGY          1e-ENERGY        2e-ENERGY     RMS[dD(SAO)]   TOL
 150  -2282.9757927098    -19545.521662     9008.5576443    0.220D-06 0.551D-14
          Norm of current diis error: 0.34408E-02
          max. resid. norm for Fia-block=  1.301D-04 for orbital    184a    alpha
          max. resid. fock norm         =  1.305D-04 for orbital    184a    alpha
 mo-orthogonalization: Cholesky decomposition
          Delta Eig. =     0.0009244211 eV 
 
                                              current damping :  0.100
 ITERATION  ENERGY          1e-ENERGY        2e-ENERGY     RMS[dD(SAO)]   TOL
 151  -2282.9757941617    -19545.521713     9008.5576945    0.221D-06 0.418D-14
          Norm of current diis error: 0.34855E-02
          max. resid. norm for Fia-block=  1.320D-04 for orbital    184a    alpha
          max. resid. fock norm         =  1.324D-04 for orbital    184a    alpha
          Delta Eig. =     0.0009302527 eV 
 
                                              current damping :  0.100
 ITERATION  ENERGY          1e-ENERGY        2e-ENERGY     RMS[dD(SAO)]   TOL
 152  -2282.9757956503    -19545.521765     9008.5577447    0.223D-06 0.341D-14
          Norm of current diis error: 0.35309E-02
          max. resid. norm for Fia-block=  1.340D-04 for orbital    184a    alpha
          max. resid. fock norm         =  1.343D-04 for orbital    184a    alpha
          Delta Eig. =     0.0009361306 eV 
 
                                              current damping :  0.100
 ITERATION  ENERGY          1e-ENERGY        2e-ENERGY     RMS[dD(SAO)]   TOL
 153  -2282.9757971772    -19545.521817     9008.5577950    0.224D-06 0.291D-14
          Norm of current diis error: 0.35768E-02
          max. resid. norm for Fia-block=  1.359D-04 for orbital    184a    alpha
          max. resid. fock norm         =  1.363D-04 for orbital    184a    alpha
          Delta Eig. =     0.0009420556 eV 
 
                                              current damping :  0.100
 ITERATION  ENERGY          1e-ENERGY        2e-ENERGY     RMS[dD(SAO)]   TOL
 154  -2282.9757987429    -19545.521869     9008.5578455    0.226D-06 0.256D-14
          Norm of current diis error: 0.36235E-02
          max. resid. norm for Fia-block=  1.379D-04 for orbital    184a    alpha
          max. resid. fock norm         =  1.383D-04 for orbital    184a    alpha
          Delta Eig. =     0.0009480262 eV 
 
                                              current damping :  0.100
 ITERATION  ENERGY          1e-ENERGY        2e-ENERGY     RMS[dD(SAO)]   TOL
 155  -2282.9758003483    -19545.521921     9008.5578960    0.228D-06 0.231D-14
          Norm of current diis error: 0.36707E-02
          max. resid. norm for Fia-block=  1.399D-04 for orbital    184a    alpha
          max. resid. fock norm         =  1.403D-04 for orbital    184a    alpha
 mo-orthogonalization: Cholesky decomposition
          Delta Eig. =     0.0009540445 eV 
 
                                              current damping :  0.100
 ITERATION  ENERGY          1e-ENERGY        2e-ENERGY     RMS[dD(SAO)]   TOL
 156  -2282.9758019945    -19545.521974     9008.5579468    0.229D-06 0.212D-14
          Norm of current diis error: 0.37186E-02
          max. resid. norm for Fia-block=  1.420D-04 for orbital    184a    alpha
          max. resid. fock norm         =  1.423D-04 for orbital    184a    alpha
          Delta Eig. =     0.0009601095 eV 
 
                                              current damping :  0.100
 ITERATION  ENERGY          1e-ENERGY        2e-ENERGY     RMS[dD(SAO)]   TOL
 157  -2282.9758036831    -19545.522026     9008.5579977    0.231D-06 0.197D-14
          Norm of current diis error: 0.37672E-02
          max. resid. norm for Fia-block=  1.440D-04 for orbital    184a    alpha
          max. resid. fock norm         =  1.444D-04 for orbital    184a    alpha
          Delta Eig. =     0.0009662216 eV 
 
                                              current damping :  0.100
 ITERATION  ENERGY          1e-ENERGY        2e-ENERGY     RMS[dD(SAO)]   TOL
 158  -2282.9758054143    -19545.522079     9008.5580488    0.232D-06 0.185D-14
          Norm of current diis error: 0.38165E-02
          max. resid. norm for Fia-block=  1.461D-04 for orbital    184a    alpha
          max. resid. fock norm         =  1.465D-04 for orbital    184a    alpha
          Delta Eig. =     0.0009723809 eV 
 
                                              current damping :  0.100
 ITERATION  ENERGY          1e-ENERGY        2e-ENERGY     RMS[dD(SAO)]   TOL
 159  -2282.9758071903    -19545.522132     9008.5581002    0.234D-06 0.175D-14
          Norm of current diis error: 0.38665E-02
          max. resid. norm for Fia-block=  1.483D-04 for orbital    184a    alpha
          max. resid. fock norm         =  1.486D-04 for orbital    184a    alpha
          Delta Eig. =     0.0009785881 eV 
 
                                              current damping :  0.100
 ITERATION  ENERGY          1e-ENERGY        2e-ENERGY     RMS[dD(SAO)]   TOL
 160  -2282.9758090120    -19545.522186     9008.5581517    0.236D-06 0.167D-14
          Norm of current diis error: 0.39171E-02
          max. resid. norm for Fia-block=  1.504D-04 for orbital    184a    alpha
          max. resid. fock norm         =  1.508D-04 for orbital    184a    alpha
 mo-orthogonalization: Cholesky decomposition
          Delta Eig. =     0.0009848430 eV 
 
                                              current damping :  0.100
 ITERATION  ENERGY          1e-ENERGY        2e-ENERGY     RMS[dD(SAO)]   TOL
 161  -2282.9758108819    -19545.522239     9008.5582035    0.237D-06 0.166D-14
          Norm of current diis error: 0.39684E-02
          max. resid. norm for Fia-block=  1.526D-04 for orbital    184a    alpha
          max. resid. fock norm         =  1.530D-04 for orbital    184a    alpha
          Delta Eig. =     0.0009911460 eV 
 
                                              current damping :  0.100
 ITERATION  ENERGY          1e-ENERGY        2e-ENERGY     RMS[dD(SAO)]   TOL
 162  -2282.9758128031    -19545.522293     9008.5582556    0.239D-06 0.166D-14
          Norm of current diis error: 0.40205E-02
          max. resid. norm for Fia-block=  1.549D-04 for orbital    184a    alpha
          max. resid. fock norm         =  1.552D-04 for orbital    184a    alpha
          Delta Eig. =     0.0009974974 eV 
 
                                              current damping :  0.100
 ITERATION  ENERGY          1e-ENERGY        2e-ENERGY     RMS[dD(SAO)]   TOL
 163  -2282.9758147677    -19545.522348     9008.5583080    0.241D-06 0.166D-14
          Norm of current diis error: 0.40732E-02
          max. resid. norm for Fia-block=  1.571D-04 for orbital    184a    alpha
          max. resid. fock norm         =  1.575D-04 for orbital    184a    alpha
          Delta Eig. =     0.0010038970 eV 
 
                                              current damping :  0.100
 ITERATION  ENERGY          1e-ENERGY        2e-ENERGY     RMS[dD(SAO)]   TOL
 164  -2282.9758167827    -19545.522402     9008.5583607    0.242D-06 0.166D-14
          Norm of current diis error: 0.41267E-02
          max. resid. norm for Fia-block=  1.594D-04 for orbital    184a    alpha
          max. resid. fock norm         =  1.598D-04 for orbital    184a    alpha
          Delta Eig. =     0.0010103455 eV 
 
                                              current damping :  0.100
 ITERATION  ENERGY          1e-ENERGY        2e-ENERGY     RMS[dD(SAO)]   TOL
 165  -2282.9758188483    -19545.522457     9008.5584137    0.244D-06 0.166D-14
          Norm of current diis error: 0.41809E-02
          max. resid. norm for Fia-block=  1.617D-04 for orbital    184a    alpha
          max. resid. fock norm         =  1.621D-04 for orbital    184a    alpha
 mo-orthogonalization: Cholesky decomposition
          Delta Eig. =     0.0010168432 eV 
 
                                              current damping :  0.100
 ITERATION  ENERGY          1e-ENERGY        2e-ENERGY     RMS[dD(SAO)]   TOL
 166  -2282.9758209650    -19545.522513     9008.5584671    0.246D-06 0.166D-14
          Norm of current diis error: 0.42359E-02
          max. resid. norm for Fia-block=  1.641D-04 for orbital    184a    alpha
          max. resid. fock norm         =  1.645D-04 for orbital    184a    alpha
          Delta Eig. =     0.0010233902 eV 
 
                                              current damping :  0.100
 ITERATION  ENERGY          1e-ENERGY        2e-ENERGY     RMS[dD(SAO)]   TOL
 167  -2282.9758231362    -19545.522569     9008.5585208    0.247D-06 0.165D-14
          Norm of current diis error: 0.42916E-02
          max. resid. norm for Fia-block=  1.665D-04 for orbital    184a    alpha
          max. resid. fock norm         =  1.669D-04 for orbital    184a    alpha
          Delta Eig. =     0.0010299866 eV 
 
                                              current damping :  0.100
 ITERATION  ENERGY          1e-ENERGY        2e-ENERGY     RMS[dD(SAO)]   TOL
 168  -2282.9758253706    -19545.522625     9008.5585750    0.249D-06 0.166D-14
          Norm of current diis error: 0.43481E-02
          max. resid. norm for Fia-block=  1.689D-04 for orbital    184a    alpha
          max. resid. fock norm         =  1.693D-04 for orbital    184a    alpha
          Delta Eig. =     0.0010366330 eV 
 
                                              current damping :  0.100
 ITERATION  ENERGY          1e-ENERGY        2e-ENERGY     RMS[dD(SAO)]   TOL
 169  -2282.9758276869    -19545.522682     9008.5586295    0.251D-06 0.131D-13
          Norm of current diis error: 0.44054E-02
          max. resid. norm for Fia-block=  1.714D-04 for orbital    184a    alpha
          max. resid. fock norm         =  1.718D-04 for orbital    184a    alpha
          Delta Eig. =     0.0010433300 eV 
 
                                              current damping :  0.100
 ITERATION  ENERGY          1e-ENERGY        2e-ENERGY     RMS[dD(SAO)]   TOL
 170  -2282.9758300406    -19545.522739     9008.5586845    0.253D-06 0.832D-14
          Norm of current diis error: 0.44634E-02
          max. resid. norm for Fia-block=  1.739D-04 for orbital    184a    alpha
          max. resid. fock norm         =  1.743D-04 for orbital    184a    alpha
 mo-orthogonalization: Cholesky decomposition
          Delta Eig. =     0.0010500767 eV 
 
                                              current damping :  0.100
 ITERATION  ENERGY          1e-ENERGY        2e-ENERGY     RMS[dD(SAO)]   TOL
 171  -2282.9758324554    -19545.522797     9008.5587399    0.254D-06 0.551D-14
          Norm of current diis error: 0.45222E-02
          max. resid. norm for Fia-block=  1.764D-04 for orbital    184a    alpha
          max. resid. fock norm         =  1.768D-04 for orbital    184a    alpha
          Delta Eig. =     0.0010568750 eV 
 
                                              current damping :  0.100
 ITERATION  ENERGY          1e-ENERGY        2e-ENERGY     RMS[dD(SAO)]   TOL
 172  -2282.9758349330    -19545.522856     9008.5587958    0.256D-06 0.422D-14
          Norm of current diis error: 0.45819E-02
          max. resid. norm for Fia-block=  1.790D-04 for orbital    184a    alpha
          max. resid. fock norm         =  1.794D-04 for orbital    184a    alpha
          Delta Eig. =     0.0010637238 eV 
 
                                              current damping :  0.100
 ITERATION  ENERGY          1e-ENERGY        2e-ENERGY     RMS[dD(SAO)]   TOL
 173  -2282.9758374758    -19545.522915     9008.5588522    0.258D-06 0.349D-14
          Norm of current diis error: 0.46423E-02
          max. resid. norm for Fia-block=  1.816D-04 for orbital    184a    alpha
          max. resid. fock norm         =  1.820D-04 for orbital    184a    alpha
          Delta Eig. =     0.0010706244 eV 
 
                                              current damping :  0.100
 ITERATION  ENERGY          1e-ENERGY        2e-ENERGY     RMS[dD(SAO)]   TOL
 174  -2282.9758400854    -19545.522974     9008.5589091    0.260D-06 0.299D-14
          Norm of current diis error: 0.47036E-02
          max. resid. norm for Fia-block=  1.842D-04 for orbital    184a    alpha
          max. resid. fock norm         =  1.846D-04 for orbital    184a    alpha
          Delta Eig. =     0.0010775770 eV 
 
                                              current damping :  0.100
 ITERATION  ENERGY          1e-ENERGY        2e-ENERGY     RMS[dD(SAO)]   TOL
 175  -2282.9758427633    -19545.523034     9008.5589666    0.262D-06 0.264D-14
          Norm of current diis error: 0.47657E-02
          max. resid. norm for Fia-block=  1.869D-04 for orbital    184a    alpha
          max. resid. fock norm         =  1.873D-04 for orbital    184a    alpha
 mo-orthogonalization: Cholesky decomposition
          Delta Eig. =     0.0010845819 eV 
 
                                              current damping :  0.100
 ITERATION  ENERGY          1e-ENERGY        2e-ENERGY     RMS[dD(SAO)]   TOL
 176  -2282.9758455117    -19545.523095     9008.5590246    0.264D-06 0.238D-14
          Norm of current diis error: 0.48286E-02
          max. resid. norm for Fia-block=  1.896D-04 for orbital    184a    alpha
          max. resid. fock norm         =  1.900D-04 for orbital    184a    alpha
          Delta Eig. =     0.0010916389 eV 
 
                                              current damping :  0.100
 ITERATION  ENERGY          1e-ENERGY        2e-ENERGY     RMS[dD(SAO)]   TOL
 177  -2282.9758483318    -19545.523156     9008.5590832    0.266D-06 0.219D-14
          Norm of current diis error: 0.48924E-02
          max. resid. norm for Fia-block=  1.924D-04 for orbital    184a    alpha
          max. resid. fock norm         =  1.928D-04 for orbital    184a    alpha
          Delta Eig. =     0.0010987490 eV 
 
                                              current damping :  0.100
 ITERATION  ENERGY          1e-ENERGY        2e-ENERGY     RMS[dD(SAO)]   TOL
 178  -2282.9758512263    -19545.523218     9008.5591424    0.268D-06 0.203D-14
          Norm of current diis error: 0.49570E-02
          max. resid. norm for Fia-block=  1.952D-04 for orbital    184a    alpha
          max. resid. fock norm         =  1.956D-04 for orbital    184a    alpha
          Delta Eig. =     0.0011059123 eV 
 
                                              current damping :  0.100
 ITERATION  ENERGY          1e-ENERGY        2e-ENERGY     RMS[dD(SAO)]   TOL
 179  -2282.9758541978    -19545.523281     9008.5592023    0.270D-06 0.190D-14
          Norm of current diis error: 0.50225E-02
          max. resid. norm for Fia-block=  1.980D-04 for orbital    184a    alpha
          max. resid. fock norm         =  1.984D-04 for orbital    184a    alpha
          Delta Eig. =     0.0011131291 eV 
 
                                              current damping :  0.100
 ITERATION  ENERGY          1e-ENERGY        2e-ENERGY     RMS[dD(SAO)]   TOL
 180  -2282.9758572467    -19545.523345     9008.5592628    0.272D-06 0.180D-14
          Norm of current diis error: 0.50889E-02
          max. resid. norm for Fia-block=  2.009D-04 for orbital    184a    alpha
          max. resid. fock norm         =  2.013D-04 for orbital    184a    alpha
 mo-orthogonalization: Cholesky decomposition
          Delta Eig. =     0.0011203992 eV 
 
                                              current damping :  0.100
 ITERATION  ENERGY          1e-ENERGY        2e-ENERGY     RMS[dD(SAO)]   TOL
 181  -2282.9758603766    -19545.523409     9008.5593240    0.274D-06 0.171D-14
          Norm of current diis error: 0.51562E-02
          max. resid. norm for Fia-block=  2.038D-04 for orbital    184a    alpha
          max. resid. fock norm         =  2.043D-04 for orbital    184a    alpha
          Delta Eig. =     0.0011277238 eV 
 
                                              current damping :  0.100
 ITERATION  ENERGY          1e-ENERGY        2e-ENERGY     RMS[dD(SAO)]   TOL
 182  -2282.9758635875    -19545.523474     9008.5593858    0.276D-06 0.166D-14
          Norm of current diis error: 0.52244E-02
          max. resid. norm for Fia-block=  2.068D-04 for orbital    184a    alpha
          max. resid. fock norm         =  2.072D-04 for orbital    184a    alpha
          Delta Eig. =     0.0011351028 eV 
 
                                              current damping :  0.100
 ITERATION  ENERGY          1e-ENERGY        2e-ENERGY     RMS[dD(SAO)]   TOL
 183  -2282.9758668848    -19545.523540     9008.5594485    0.278D-06 0.166D-14
          Norm of current diis error: 0.52935E-02
          max. resid. norm for Fia-block=  2.098D-04 for orbital    184a    alpha
          max. resid. fock norm         =  2.102D-04 for orbital    184a    alpha
          Delta Eig. =     0.0011425365 eV 
 
                                              current damping :  0.100
 ITERATION  ENERGY          1e-ENERGY        2e-ENERGY     RMS[dD(SAO)]   TOL
 184  -2282.9758702681    -19545.523607     9008.5595118    0.280D-06 0.166D-14
          Norm of current diis error: 0.53635E-02
          max. resid. norm for Fia-block=  2.129D-04 for orbital    184a    alpha
          max. resid. fock norm         =  2.133D-04 for orbital    184a    alpha
          Delta Eig. =     0.0011500254 eV 
 
                                              current damping :  0.100
 ITERATION  ENERGY          1e-ENERGY        2e-ENERGY     RMS[dD(SAO)]   TOL
 185  -2282.9758737358    -19545.523675     9008.5595760    0.282D-06 0.166D-14
          Norm of current diis error: 0.54344E-02
          max. resid. norm for Fia-block=  2.160D-04 for orbital    184a    alpha
          max. resid. fock norm         =  2.164D-04 for orbital    184a    alpha
 mo-orthogonalization: Cholesky decomposition
          Delta Eig. =     0.0011575698 eV 
 
                                              current damping :  0.100
 ITERATION  ENERGY          1e-ENERGY        2e-ENERGY     RMS[dD(SAO)]   TOL
 186  -2282.9758772977    -19545.523743     9008.5596409    0.284D-06 0.166D-14
          Norm of current diis error: 0.55063E-02
          max. resid. norm for Fia-block=  2.191D-04 for orbital    184a    alpha
          max. resid. fock norm         =  2.195D-04 for orbital    184a    alpha
          Delta Eig. =     0.0011651699 eV 
 
                                              current damping :  0.100
 ITERATION  ENERGY          1e-ENERGY        2e-ENERGY     RMS[dD(SAO)]   TOL
 187  -2282.9758809530    -19545.523812     9008.5597067    0.286D-06 0.166D-14
          Norm of current diis error: 0.55791E-02
          max. resid. norm for Fia-block=  2.223D-04 for orbital    184a    alpha
          max. resid. fock norm         =  2.227D-04 for orbital    184a    alpha
          Delta Eig. =     0.0011728261 eV 
 
                                              current damping :  0.100
 ITERATION  ENERGY          1e-ENERGY        2e-ENERGY     RMS[dD(SAO)]   TOL
 188  -2282.9758847042    -19545.523883     9008.5597734    0.288D-06 0.166D-14
          Norm of current diis error: 0.56529E-02
          max. resid. norm for Fia-block=  2.255D-04 for orbital    184a    alpha
          max. resid. fock norm         =  2.260D-04 for orbital    184a    alpha
          Delta Eig. =     0.0011805386 eV 
 
                                              current damping :  0.100
 ITERATION  ENERGY          1e-ENERGY        2e-ENERGY     RMS[dD(SAO)]   TOL
 189  -2282.9758885600    -19545.523954     9008.5598409    0.291D-06 0.166D-14
          Norm of current diis error: 0.57277E-02
          max. resid. norm for Fia-block=  2.288D-04 for orbital    184a    alpha
          max. resid. fock norm         =  2.292D-04 for orbital    184a    alpha
          Delta Eig. =     0.0011883076 eV 
 
                                              current damping :  0.100
 ITERATION  ENERGY          1e-ENERGY        2e-ENERGY     RMS[dD(SAO)]   TOL
 190  -2282.9758925381    -19545.524027     9008.5599093    0.293D-06 0.131D-13
          Norm of current diis error: 0.58035E-02
          max. resid. norm for Fia-block=  2.321D-04 for orbital    184a    alpha
          max. resid. fock norm         =  2.326D-04 for orbital    184a    alpha
 mo-orthogonalization: Cholesky decomposition
          Delta Eig. =     0.0011961337 eV 
 
                                              current damping :  0.100
 ITERATION  ENERGY          1e-ENERGY        2e-ENERGY     RMS[dD(SAO)]   TOL
 191  -2282.9758966028    -19545.524100     9008.5599788    0.295D-06 0.832D-14
          Norm of current diis error: 0.58802E-02
          max. resid. norm for Fia-block=  2.355D-04 for orbital    184a    alpha
          max. resid. fock norm         =  2.360D-04 for orbital    184a    alpha
          Delta Eig. =     0.0012040161 eV 
 
                                              current damping :  0.100
 ITERATION  ENERGY          1e-ENERGY        2e-ENERGY     RMS[dD(SAO)]   TOL
 192  -2282.9759007754    -19545.524175     9008.5600491    0.297D-06 0.551D-14
          Norm of current diis error: 0.59579E-02
          max. resid. norm for Fia-block=  2.389D-04 for orbital    184a    alpha
          max. resid. fock norm         =  2.394D-04 for orbital    184a    alpha
          Delta Eig. =     0.0012119563 eV 
 
                                              current damping :  0.100
 ITERATION  ENERGY          1e-ENERGY        2e-ENERGY     RMS[dD(SAO)]   TOL
 193  -2282.9759050594    -19545.524250     9008.5601205    0.300D-06 0.415D-14
          Norm of current diis error: 0.60367E-02
          max. resid. norm for Fia-block=  2.424D-04 for orbital    184a    alpha
          max. resid. fock norm         =  2.429D-04 for orbital    184a    alpha
          Delta Eig. =     0.0012199537 eV 
 
                                              current damping :  0.100
 ITERATION  ENERGY          1e-ENERGY        2e-ENERGY     RMS[dD(SAO)]   TOL
 194  -2282.9759094576    -19545.524327     9008.5601930    0.302D-06 0.336D-14
          Norm of current diis error: 0.61164E-02
          max. resid. norm for Fia-block=  2.459D-04 for orbital    184a    alpha
          max. resid. fock norm         =  2.464D-04 for orbital    184a    alpha
          Delta Eig. =     0.0012280084 eV 
 
                                              current damping :  0.100
 ITERATION  ENERGY          1e-ENERGY        2e-ENERGY     RMS[dD(SAO)]   TOL
 195  -2282.9759139725    -19545.524405     9008.5602665    0.304D-06 0.285D-14
          Norm of current diis error: 0.61972E-02
          max. resid. norm for Fia-block=  2.495D-04 for orbital    184a    alpha
          max. resid. fock norm         =  2.500D-04 for orbital    184a    alpha
 mo-orthogonalization: Cholesky decomposition
          Delta Eig. =     0.0012361207 eV 
 
                                              current damping :  0.100
 ITERATION  ENERGY          1e-ENERGY        2e-ENERGY     RMS[dD(SAO)]   TOL
 196  -2282.9759186078    -19545.524484     9008.5603411    0.307D-06 0.251D-14
          Norm of current diis error: 0.62791E-02
          max. resid. norm for Fia-block=  2.531D-04 for orbital    184a    alpha
          max. resid. fock norm         =  2.536D-04 for orbital    184a    alpha
          Delta Eig. =     0.0012442910 eV 
 
[...]
 329  -2282.9809407554    -19545.598525     9008.6293590    0.131D-05 0.166D-14
          Norm of current diis error: 0.21835E-01
          max. resid. norm for Fia-block=  7.869D-04 for orbital    186a    alpha
          max. resid. fock norm         =  7.894D-04 for orbital    186a    alpha
          Delta Eig. =     0.0045213304 eV 
 
                                              current damping :  0.100
 ITERATION  ENERGY          1e-ENERGY        2e-ENERGY     RMS[dD(SAO)]   TOL
 330  -2282.9810195583    -19545.599855     9008.6306109    0.130D-05 0.166D-14
          Norm of current diis error: 0.22004E-01
          max. resid. norm for Fia-block=  7.891D-04 for orbital    186a    alpha
          max. resid. fock norm         =  7.917D-04 for orbital    186a    alpha
 mo-orthogonalization: Cholesky decomposition
          Delta Eig. =     0.0045053156 eV 
 
                                              current damping :  0.100
 ITERATION  ENERGY          1e-ENERGY        2e-ENERGY     RMS[dD(SAO)]   TOL
 331  -2282.9810990607    -19545.601192     9008.6318682    0.130D-05 0.166D-14
          Norm of current diis error: 0.22176E-01
          max. resid. norm for Fia-block=  7.918D-04 for orbital    186a    alpha
          max. resid. fock norm         =  7.943D-04 for orbital    186a    alpha
          Delta Eig. =     0.0040285821 eV 
 density matrices became linear dependent...
 subr. ddmat can not establish optimal linear combination of delta densities !
 next fock matrix will be calculated from scratch !
 
                                              current damping :  0.100
 ITERATION  ENERGY          1e-ENERGY        2e-ENERGY     RMS[dD(SAO)]   TOL
 332  -2282.9811793544    -19545.602536     9008.6331320    0.130D-05 0.131D-13
          Norm of current diis error: 0.22351E-01
          max. resid. norm for Fia-block=  7.952D-04 for orbital    191a    beta 
          max. resid. fock norm         =  8.000D-04 for orbital    191a    beta 
          Delta Eig. =     0.0044839188 eV 
 
                                              current damping :  0.100
 ITERATION  ENERGY          1e-ENERGY        2e-ENERGY     RMS[dD(SAO)]   TOL
 333  -2282.9812605280    -19545.603889     9008.6344036    0.130D-05 0.832D-14
          Norm of current diis error: 0.22529E-01
          max. resid. norm for Fia-block=  8.046D-04 for orbital    191a    beta 
          max. resid. fock norm         =  8.095D-04 for orbital    191a    beta 
          Delta Eig. =     0.0044783025 eV 
 
                                              current damping :  0.100
 ITERATION  ENERGY          1e-ENERGY        2e-ENERGY     RMS[dD(SAO)]   TOL
 334  -2282.9813426721    -19545.605251     9008.6356840    0.130D-05 0.552D-14
          Norm of current diis error: 0.22710E-01
          max. resid. norm for Fia-block=  8.147D-04 for orbital    191a    beta 
          max. resid. fock norm         =  8.196D-04 for orbital    191a    beta 
          Delta Eig. =     0.0044759481 eV 
 
                                              current damping :  0.100
 ITERATION  ENERGY          1e-ENERGY        2e-ENERGY     RMS[dD(SAO)]   TOL
 335  -2282.9814258762    -19545.606625     9008.6369744    0.130D-05 0.414D-14
          Norm of current diis error: 0.22894E-01
          max. resid. norm for Fia-block=  8.253D-04 for orbital    191a    beta 
          max. resid. fock norm         =  8.303D-04 for orbital    191a    beta 
 mo-orthogonalization: Cholesky decomposition
          Delta Eig. =     0.0044767838 eV 
 
                                              current damping :  0.100
 ITERATION  ENERGY          1e-ENERGY        2e-ENERGY     RMS[dD(SAO)]   TOL
 336  -2282.9815102267    -19545.608011     9008.6382759    0.130D-05 0.333D-14
          Norm of current diis error: 0.23079E-01
          max. resid. norm for Fia-block=  8.365D-04 for orbital    191a    beta 
          max. resid. fock norm         =  8.416D-04 for orbital    191a    beta 
          Delta Eig. =     0.0044807555 eV 
 
                                              current damping :  0.100
 ITERATION  ENERGY          1e-ENERGY        2e-ENERGY     RMS[dD(SAO)]   TOL
 337  -2282.9815958119    -19545.609411     9008.6395899    0.131D-05 0.279D-14
          Norm of current diis error: 0.23266E-01
          max. resid. norm for Fia-block=  8.484D-04 for orbital    191a    beta 
          max. resid. fock norm         =  8.535D-04 for orbital    191a    beta 
          Delta Eig. =     0.0044878286 eV 
 
                                              current damping :  0.100
 ITERATION  ENERGY          1e-ENERGY        2e-ENERGY     RMS[dD(SAO)]   TOL
 338  -2282.9816827202    -19545.610825     9008.6409174    0.131D-05 0.241D-14
          Norm of current diis error: 0.23455E-01
          max. resid. norm for Fia-block=  8.608D-04 for orbital    191a    beta 
          max. resid. fock norm         =  8.660D-04 for orbital    191a    beta 
          Delta Eig. =     0.0044979879 eV 
 
                                              current damping :  0.100
 ITERATION  ENERGY          1e-ENERGY        2e-ENERGY     RMS[dD(SAO)]   TOL
 339  -2282.9817710404    -19545.612256     9008.6422598    0.132D-05 0.213D-14
          Norm of current diis error: 0.23646E-01
          max. resid. norm for Fia-block=  8.739D-04 for orbital    191a    beta 
          max. resid. fock norm         =  8.792D-04 for orbital    191a    beta 
          Delta Eig. =     0.0045112389 eV 
 
                                              current damping :  0.100
 ITERATION  ENERGY          1e-ENERGY        2e-ENERGY     RMS[dD(SAO)]   TOL
 340  -2282.9818608622    -19545.613704     9008.6436182    0.133D-05 0.191D-14
          Norm of current diis error: 0.23837E-01
          max. resid. norm for Fia-block=  8.876D-04 for orbital    191a    beta 
          max. resid. fock norm         =  8.931D-04 for orbital    191a    beta 
 mo-orthogonalization: Cholesky decomposition
          Delta Eig. =     0.0045276080 eV 
 
                                              current damping :  0.100
 ITERATION  ENERGY          1e-ENERGY        2e-ENERGY     RMS[dD(SAO)]   TOL
 341  -2282.9819522764    -19545.615171     9008.6449940    0.134D-05 0.174D-14
          Norm of current diis error: 0.24029E-01
          max. resid. norm for Fia-block=  9.021D-04 for orbital    191a    beta 
          max. resid. fock norm         =  9.076D-04 for orbital    191a    beta 
          Delta Eig. =     0.0045471445 eV 
 
                                              current damping :  0.100
 ITERATION  ENERGY          1e-ENERGY        2e-ENERGY     RMS[dD(SAO)]   TOL
 342  -2282.9820453763    -19545.616659     9008.6463887    0.135D-05 0.166D-14
          Norm of current diis error: 0.24222E-01
          max. resid. norm for Fia-block=  9.173D-04 for orbital    191a    beta 
          max. resid. fock norm         =  9.229D-04 for orbital    191a    beta 
          Delta Eig. =     0.0040527475 eV 
 
                                              current damping :  0.100
 ITERATION  ENERGY          1e-ENERGY        2e-ENERGY     RMS[dD(SAO)]   TOL
 343  -2282.9821402607    -19545.618169     9008.6478035    0.137D-05 0.166D-14
          Norm of current diis error: 0.24414E-01
          max. resid. norm for Fia-block=  9.332D-04 for orbital    191a    beta 
          max. resid. fock norm         =  9.389D-04 for orbital    191a    beta 
          Delta Eig. =     0.0045960440 eV 
 
                                              current damping :  0.100
 ITERATION  ENERGY          1e-ENERGY        2e-ENERGY     RMS[dD(SAO)]   TOL
 344  -2282.9822370231    -19545.619702     9008.6492400    0.138D-05 0.166D-14
          Norm of current diis error: 0.24607E-01
          max. resid. norm for Fia-block=  9.500D-04 for orbital    191a    beta 
          max. resid. fock norm         =  9.558D-04 for orbital    191a    beta 
          Delta Eig. =     0.0046256401 eV 
 
                                              current damping :  0.100
 ITERATION  ENERGY          1e-ENERGY        2e-ENERGY     RMS[dD(SAO)]   TOL
 345  -2282.9823357633    -19545.621260     9008.6506997    0.140D-05 0.166D-14
          Norm of current diis error: 0.24799E-01
          max. resid. norm for Fia-block=  9.676D-04 for orbital    191a    beta 
          max. resid. fock norm         =  9.735D-04 for orbital    191a    beta 
 mo-orthogonalization: Cholesky decomposition
          Delta Eig. =     0.0046588769 eV 
 
                                              current damping :  0.100
 ITERATION  ENERGY          1e-ENERGY        2e-ENERGY     RMS[dD(SAO)]   TOL
 346  -2282.9824365961    -19545.622846     9008.6521845    0.141D-05 0.166D-14
          Norm of current diis error: 0.24990E-01
          max. resid. norm for Fia-block=  9.861D-04 for orbital    191a    beta 
          max. resid. fock norm         =  9.922D-04 for orbital    191a    beta 
          Delta Eig. =     0.0046959604 eV 
 
                                              current damping :  0.100
 ITERATION  ENERGY          1e-ENERGY        2e-ENERGY     RMS[dD(SAO)]   TOL
 347  -2282.9825396310    -19545.624460     9008.6536959    0.143D-05 0.166D-14
          Norm of current diis error: 0.25180E-01
          max. resid. norm for Fia-block=  1.006D-03 for orbital    191a    beta 
          max. resid. fock norm         =  1.012D-03 for orbital    191a    beta 
          Delta Eig. =     0.0047371387 eV 
 
                                              current damping :  0.100
 ITERATION  ENERGY          1e-ENERGY        2e-ENERGY     RMS[dD(SAO)]   TOL
 348  -2282.9826449855    -19545.626106     9008.6552361    0.146D-05 0.166D-14
          Norm of current diis error: 0.25368E-01
          max. resid. norm for Fia-block=  1.026D-03 for orbital    191a    beta 
          max. resid. fock norm         =  1.033D-03 for orbital    191a    beta 
          Delta Eig. =     0.0047827174 eV 
 
                                              current damping :  0.100
 ITERATION  ENERGY          1e-ENERGY        2e-ENERGY     RMS[dD(SAO)]   TOL
 349  -2282.9827527856    -19545.627785     9008.6568071    0.148D-05 0.166D-14
          Norm of current diis error: 0.25554E-01
          max. resid. norm for Fia-block=  1.048D-03 for orbital    191a    beta 
          max. resid. fock norm         =  1.055D-03 for orbital    191a    beta 
          Delta Eig. =     0.0048330625 eV 
 
                                              current damping :  0.100
 ITERATION  ENERGY          1e-ENERGY        2e-ENERGY     RMS[dD(SAO)]   TOL
 350  -2282.9828631638    -19545.629499     9008.6584111    0.151D-05 0.166D-14
          Norm of current diis error: 0.25738E-01
          max. resid. norm for Fia-block=  1.071D-03 for orbital    191a    beta 
          max. resid. fock norm         =  1.078D-03 for orbital    191a    beta 
 mo-orthogonalization: Cholesky decomposition
          Delta Eig. =     0.0048886162 eV 
 density matrices became linear dependent...
 subr. ddmat can not establish optimal linear combination of delta densities !
 next fock matrix will be calculated from scratch !
 
                                              current damping :  0.100
 ITERATION  ENERGY          1e-ENERGY        2e-ENERGY     RMS[dD(SAO)]   TOL
 351  -2282.9829762800    -19545.631252     9008.6600506    0.153D-05 0.131D-13
          Norm of current diis error: 0.25919E-01
          max. resid. norm for Fia-block=  1.096D-03 for orbital    191a    beta 
          max. resid. fock norm         =  1.102D-03 for orbital    191a    beta 
          Delta Eig. =     0.0049499156 eV 
 
                                              current damping :  0.100
 ITERATION  ENERGY          1e-ENERGY        2e-ENERGY     RMS[dD(SAO)]   TOL
 352  -2282.9830922742    -19545.633046     9008.6617285    0.156D-05 0.832D-14
          Norm of current diis error: 0.26096E-01
          max. resid. norm for Fia-block=  1.122D-03 for orbital    191a    beta 
          max. resid. fock norm         =  1.129D-03 for orbital    191a    beta 
          Delta Eig. =     0.0050176062 eV 
 
                                              current damping :  0.100
 ITERATION  ENERGY          1e-ENERGY        2e-ENERGY     RMS[dD(SAO)]   TOL
 353  -2282.9832113286    -19545.634884     9008.6634477    0.160D-05 0.550D-14
          Norm of current diis error: 0.26269E-01
          max. resid. norm for Fia-block=  1.150D-03 for orbital    191a    beta 
          max. resid. fock norm         =  1.157D-03 for orbital    191a    beta 
          Delta Eig. =     0.0050924836 eV 
 
                                              current damping :  0.100
 ITERATION  ENERGY          1e-ENERGY        2e-ENERGY     RMS[dD(SAO)]   TOL
 354  -2282.9833336364    -19545.636770     9008.6652117    0.163D-05 0.411D-14
          Norm of current diis error: 0.26437E-01
          max. resid. norm for Fia-block=  1.179D-03 for orbital    191a    beta 
          max. resid. fock norm         =  1.187D-03 for orbital    191a    beta 
          Delta Eig. =     0.0051755164 eV 
 
                                              current damping :  0.100
 ITERATION  ENERGY          1e-ENERGY        2e-ENERGY     RMS[dD(SAO)]   TOL
 355  -2282.9834594152    -19545.638709     9008.6670244    0.167D-05 0.329D-14
          Norm of current diis error: 0.26600E-01
          max. resid. norm for Fia-block=  1.212D-03 for orbital    191a    beta 
          max. resid. fock norm         =  1.219D-03 for orbital    191a    beta 
 mo-orthogonalization: Cholesky decomposition
          Delta Eig. =     0.0052679087 eV 
 
                                              current damping :  0.100
 ITERATION  ENERGY          1e-ENERGY        2e-ENERGY     RMS[dD(SAO)]   TOL
 356  -2282.9835889111    -19545.640704     9008.6688904    0.172D-05 0.275D-14
          Norm of current diis error: 0.26756E-01
          max. resid. norm for Fia-block=  1.247D-03 for orbital    191a    beta 
          max. resid. fock norm         =  1.254D-03 for orbital    191a    beta 
          Delta Eig. =     0.0053711647 eV 
 
                                              current damping :  0.100
 ITERATION  ENERGY          1e-ENERGY        2e-ENERGY     RMS[dD(SAO)]   TOL
 357  -2282.9837224067    -19545.642762     9008.6708146    0.177D-05 0.237D-14
          Norm of current diis error: 0.26906E-01
          max. resid. norm for Fia-block=  1.285D-03 for orbital    191a    beta 
          max. resid. fock norm         =  1.293D-03 for orbital    191a    beta 
          Delta Eig. =     0.0054871897 eV 
 
                                              current damping :  0.100
 ITERATION  ENERGY          1e-ENERGY        2e-ENERGY     RMS[dD(SAO)]   TOL
 358  -2282.9838602313    -19545.644888     9008.6728033    0.182D-05 0.208D-14
          Norm of current diis error: 0.27048E-01
          max. resid. norm for Fia-block=  1.327D-03 for orbital    191a    beta 
          max. resid. fock norm         =  1.335D-03 for orbital    191a    beta 
          Delta Eig. =     0.0056184277 eV 
 
                                              current damping :  0.100
 ITERATION  ENERGY          1e-ENERGY        2e-ENERGY     RMS[dD(SAO)]   TOL
 359  -2282.9840027755    -19545.647091     9008.6748635    0.188D-05 0.186D-14
          Norm of current diis error: 0.27181E-01
          max. resid. norm for Fia-block=  1.373D-03 for orbital    191a    beta 
          max. resid. fock norm         =  1.382D-03 for orbital    191a    beta 

 convergence criteria cannot be satisfied within   359 iterations !


                  ------------------------------------------ 
                 |  total energy      =  -2282.98400277548  |
                  ------------------------------------------ 
                 :  kinetic energy    =   2279.91751092123  :
                 :  potential energy  =  -4562.90151369671  :
                 :  virial theorem    =      1.99865680537  :
                 :  wavefunction norm =      1.00000000000  :
                  .......................................... 


 ATTENTION : $energy will not be updated since 
 this calculation did not converge (sob) 

 A POSSIBLE REASON MAY BE THAT ...
 - THE GEOMETRY IS FAR FROM BEING REASONABLE
 - THIS IS AN OPEN SHELL CALCULATION (GOSH)

 
 alpha: 

    irrep                190a        191a        192a        193a        194a   
 eigenvalues H         -0.32497    -0.32014    -0.31525    -0.28450    -0.22677
            eV          -8.8429     -8.7116     -8.5783     -7.7417     -6.1709
 occupation              1.0000      1.0000      1.0000      1.0000      1.0000 

    irrep                195a        196a        197a        198a        199a   
 eigenvalues H          0.01691     0.05889     0.10416     0.11335     0.11619
            eV           0.4602      1.6025      2.8343      3.0844      3.1617
 
 beta:  

    irrep                188a        189a        190a        191a        192a   
 eigenvalues H         -0.32304    -0.32007    -0.31535    -0.28442    -0.24928
            eV          -8.7905     -8.7097     -8.5812     -7.7394     -6.7832
 occupation              1.0000      1.0000      1.0000      1.0000      1.0000 

    irrep                193a        194a        195a        196a        197a   
 eigenvalues H         -0.08045     0.02509     0.07428     0.08366     0.10847
            eV          -2.1891      0.6826      2.0214      2.2764      2.9517
 

                                             _ _ _ 
  IRREP     alpha occ.     beta occ.      tr(D*D-D)


 a        194.00000000   192.00000000    -1.09031206

   -------------------------------------------------

   sum    194.00000000   192.00000000    -1.09031206

 <S*S>     3.18062411

 
 
 
 ==============================================================================
                           electrostatic moments
 ==============================================================================

 reference point for electrostatic moments:    0.00000   0.00000   0.00000

 
              nuc           elec       ->  total
 ------------------------------------------------------------------------------
                          charge      
 ------------------------------------------------------------------------------
         386.000000    -386.000000      -0.000000
 a-b                                     2.000000
 
 ------------------------------------------------------------------------------
                       dipole moment  
 ------------------------------------------------------------------------------
   x      -8.024468       2.914687      -5.109781
   y      -0.932494       1.756947       0.824453
   z      -0.104719      -0.883522      -0.988242
 
   | dipole moment | =     5.2694 a.u. =    13.3934 debye 
 
 ------------------------------------------------------------------------------
                     quadrupole moment
 ------------------------------------------------------------------------------
  xx   14542.636531  -14757.968197    -215.331667
  yy    7517.193371   -7746.174622    -228.981251
  zz    4504.203094   -4798.952743    -294.749650
  xy     -48.562455      57.298084       8.735629
  xz      63.697768     -63.223913       0.473855
  yz      58.977714     -56.578515       2.399199
 
     1/3  trace=    -246.354189
     anisotropy=      75.208912
 
 ==============================================================================
 

 ATTENTION: dscf did not converge! 



    ------------------------------------------------------------------------
         total  cpu-time :  43 days  9 hours 31 minutes and 37 seconds
         total wall-time :   1 days 11 hours 57 minutes and  0 seconds
    ------------------------------------------------------------------------

   ****  dscf : all done  ****


    2019-03-04 23:52:18.816 

