Using Slurm to start processes with PMI2
STARTING ridft ON 8 PROCESSORS!
RUNNING PROGRAM /beegfs/modfac/apps/TURBOMOLE/7.0_intel_GA/bin/em64t-unknown-linux-gnu_mpi/ridft_mpi.
PLEASE WAIT UNTIL ridft HAS FINISHED.
Look for the output in slave1.output.
  this is node-proc. number 1 running on node c-16-23.local
  the total number of node-proc. spawned is            8
  parallel platform: MPP, or cluster with fast interconnect

 ridft (c-16-23.local) : TURBOMOLE V7.0.2( ) 15 Jan 2016 at 17:47:42
 Copyright (C) 2016 TURBOMOLE GmbH, Karlsruhe


    2017-11-13 13:22:46.560 



                                  r i d f t

                        DFT program with RI approximation 
                                for coulomb part 




                                                 
                                 References:     
                                                 
          TURBOMOLE:                             
              R. Ahlrichs, M. Baer, M. Haeser, H. Horn, and
              C. Koelmel
              Electronic structure calculations on workstation
              computers: the program system TURBOMOLE
              Chem. Phys. Lett. 162: 165 (1989)
          Density Functional:                              
              O. Treutler and R. Ahlrichs                      
              Efficient Molecular Numerical Integration Schemes
              J. Chem. Phys. 102: 346 (1995)                   
          Parallel Version:                                
              Performance of parallel TURBOMOLE for Density    
              Functional Calculations                          
              M. v. Arnim and R. Ahlrichs                      
              J. Comp. Chem. 19: 1746 (1998)                   
          RI-J Method:                                     
              Auxiliary Basis Sets to approximate Coulomb      
              Potentials                                       
              Chem. Phys. Lett. 240: 283 (1995)                
              K. Eichkorn, O. Treutler, H. Oehm, M. Haeser     
              and R. Ahlrichs                                  
              Chem. Phys. Lett. 242: 652 (1995)                
                                                           
              Auxiliary Basis Sets for Main Row Atoms and their
              Use to approximate Coulomb Potentials            
              K. Eichkorn, F. Weigend, O. Treutler and         
              R. Ahlrichs                                      
              Theo. Chem. Acc. 97: 119 (1997)                   
                                                           
              Accurate Coulomb-fitting basis sets for H to Rn 
              F. Weigend                                        
              Phys. Chem. Chem. Phys. 8: 1057 (2006)            
                                                           
          Multipole accelerated RI-J (MARI-J):             
              Fast evaluation of the Coulomb potential for     
              electron densities using multipole accelerated   
              resolution of identity approximation             
              M. Sierka, A. Hogekamp and R. Ahlrichs           
              J. Chem. Phys. 118: 9136 (2003)                  
          RI-JK Method:                                     
              A fully direct RI-HF algorithm: Implementation,
              optimised auxiliary basis sets, demonstration of
              accuracy and efficiency                         
              F. Weigend                                      
              Phys. Chem. Chem. Phys. 4: 4285 (2002)           
          Two-component HF and DFT with spin-orbit coupling:  
              Self-consistent treatment of spin-orbit         
              interactions with efficient Hartree-Fock and    
              density functional methods                      
              M. K. Armbruster, F. Weigend, C. van Wüllen and 
              W. Klopper                                      
              Phys. Chem. Chem. Phys. 10: 1748 (2008)         
          Relativistic all-electron 2c calculations           
              An efficient implementation of two-component    
              relativistic exact-decoupling methods for large 
              molecules                                       
              D. Peng, N. Middendorf, F. Weigend, M. Reiher   
              J. Chem. Phys. 138, 184105 (2013)               
                                         


 


              +--------------------------------------------------+
              |      general information about current run       |
              +--------------------------------------------------+

 

 SCF run will be profiled !


 DENSITY CONVERGENCE CHECK SWITCHED ON !
 SCF CONVERGENCE IF RMS(delta[D]) <     0.1000000000E-06

 PBE functional
 exchange:    LDA + PBE
 correlation: LDA (PW) + PBE
 A DFT calculation using the RI-J approximation will be carried out.
 Allocatable memory for RI due to $ricore (MB):       35000


              +--------------------------------------------------+
              | Atomic coordinate, charge and isotop information |
              +--------------------------------------------------+

                    atomic coordinates            atom    charge  isotop
         -0.69383379    2.57120482    5.80072557    c      6.000     0
          1.38124056    3.76378589    6.94037130    c      6.000     0
          2.53764843    5.87359298    5.89011535    c      6.000     0
          1.56472954    6.82648963    3.64923082    c      6.000     0
         -0.53333695    5.77245329    2.42307312    c      6.000     0
         -1.56995362    3.59837774    3.52624015    c      6.000     0
          2.74660021    8.96748551    2.54967938    o      8.000     0
          4.97322233    8.46550639    1.34646284    c      6.000     0
          7.04283582    8.07954567    2.71279666    n      7.000     0
          9.10512082    7.57778725    1.34600407    c      6.000     0
          9.10574718    7.47911772   -1.27615909    c      6.000     0
          7.04554288    7.87498851   -2.67837113    n      7.000     0
          4.97580267    8.36298380   -1.34528967    c      6.000     0
         11.70706260    6.79413038   -2.16192234    c      6.000     0
         13.12114723    6.50415555    0.07108114    n      7.000     0
         11.70550260    6.95053784    2.27960342    c      6.000     0
         15.73207420    5.56126923    0.10006178    c      6.000     0
         15.79907374    2.70004388    0.13396004    c      6.000     0
         15.74068003    1.38986377    2.42931400    c      6.000     0
         15.71741483   -1.24147952    2.46115034    c      6.000     0
         15.75052948   -2.60738717    0.19765414    c      6.000     0
         15.79665985   -1.29754910   -2.09807515    c      6.000     0
         15.82201447    1.33446292   -2.12928650    c      6.000     0
         12.52127667    6.81780959    4.41919850    o      8.000     0
         12.52511572    6.51977552   -4.28756762    o      8.000     0
          2.75629669    8.78539094   -2.58208767    o      8.000     0
          1.57226239    6.61014674   -3.60197114    c      6.000     0
          2.52409879    5.57483877   -5.81389382    c      6.000     0
          1.31999367    3.46131028   -6.80097700    c      6.000     0
         -0.79745982    2.36284821   -5.64358304    c      6.000     0
         -1.68005191    3.50186899   -3.42609313    c      6.000     0
         -0.55657195    5.64714258   -2.35709813    c      6.000     0
          2.27315197    2.81555405    9.25123503    o      8.000     0
          4.55073448    1.54973959    9.19337912    c      6.000     0
          6.64913907    2.82884412    9.12509359    n      7.000     0
          8.85655854    1.47708381    9.16061822    c      6.000     0
          8.81248184   -1.22516041    9.25370652    c      6.000     0
          6.56226143   -2.50503059    9.29971291    n      7.000     0
          4.50568073   -1.15785250    9.27662013    c      6.000     0
         11.10841396   -2.58241195    9.29997591    c      6.000     0
         13.36765088   -1.28133309    9.28503571    c      6.000     0
         13.41076867    1.38827955    9.19395527    c      6.000     0
         11.19501405    2.76037620    9.11573343    c      6.000     0
          2.18569548   -2.34491776    9.38752012    o      8.000     0
          1.27405929   -3.35296951    7.10777736    c      6.000     0
          2.42053598   -5.49824227    6.11455540    c      6.000     0
          1.46238734   -6.48822416    3.88443874    c      6.000     0
         -0.61523110   -5.44145959    2.61870111    c      6.000     0
         -1.63971994   -3.23151687    3.66027273    c      6.000     0
         -0.77824816   -2.16080896    5.92362139    c      6.000     0
          2.62570261   -8.65865493    2.82299877    o      8.000     0
          4.84740626   -8.21746327    1.58881355    c      6.000     0
          6.91725800   -7.76590065    2.93611406    n      7.000     0
          8.98551221   -7.34684666    1.55291115    c      6.000     0
          8.99351933   -7.38252732   -1.07074178    c      6.000     0
          6.93461334   -7.84333892   -2.45379285    n      7.000     0
          4.85777507   -8.25914227   -1.10668614    c      6.000     0
         11.59048356   -6.70405381    2.46173631    c      6.000     0
         13.01244623   -6.37059017    0.23859839    n      7.000     0
         11.60179720   -6.75953879   -1.98306816    c      6.000     0
         15.63690235   -5.46718730    0.23305896    c      6.000     0
         -1.82693983    0.25735245    7.09011993    c      6.000     0
         -4.71765147    0.39823101    7.58953019    c      6.000     0
         -6.61841471   -0.10775429    5.46930344    c      6.000     0
         -9.38305183    0.16673638    6.31892194    c      6.000     0
         -1.56375571   -6.71200293    0.21405236    c      6.000     0
         -4.44155040   -7.31343200    0.06324631    c      6.000     0
         -6.38551402   -5.25076402    0.65935011    c      6.000     0
         -9.07371606   -5.87896640   -0.23157717    c      6.000     0
         12.42760857   -6.59799980   -4.11672944    o      8.000     0
          2.64870184   -8.74116598   -2.34836137    o      8.000     0
          1.48851281   -6.59125984   -3.45202881    c      6.000     0
          2.38215728   -5.70444334   -5.75020911    c      6.000     0
          1.20834485   -3.60521067   -6.81239036    c      6.000     0
         -0.79965052   -2.35121141   -5.61944730    c      6.000     0
         -1.57864395   -3.30548567   -3.27793676    c      6.000     0
         -0.54143951   -5.47202489   -2.17569513    c      6.000     0
         12.40681293   -6.49219441    4.59487007    o      8.000     0
          2.06976025   -2.71370037   -9.16079331    o      8.000     0
          4.40236793   -1.54105094   -9.09976805    c      6.000     0
          6.45015628   -2.90046776   -9.12451978    n      7.000     0
          8.70695711   -1.63123639   -9.06512362    c      6.000     0
          8.76469398    1.07082980   -8.95872673    c      6.000     0
          6.56412193    2.43514032   -8.93901024    n      7.000     0
          4.46168118    1.16362074   -9.01854472    c      6.000     0
         11.10930371    2.34034757   -8.87352516    c      6.000     0
         13.31812799    0.95549016   -8.92001631    c      6.000     0
         13.26198706   -1.71312731   -9.02237100    c      6.000     0
         10.99576917   -3.00046636   -9.08246299    c      6.000     0
         -1.94352541    0.00061599   -6.83154923    c      6.000     0
         -4.86622024    0.03145839   -7.15631716    c      6.000     0
         -6.61901878   -0.68011583   -4.96100452    c      6.000     0
         -9.43160716   -0.33778325   -5.59598654    c      6.000     0
          2.18240331    2.42088958   -9.08007848    o      8.000     0
         -1.52356358    6.98772515    0.00396863    c      6.000     0
         -4.39198427    7.63162773   -0.06554183    c      6.000     0
         -6.38682864    5.65262629    0.64397454    c      6.000     0
         -9.09914869    6.52916480    0.08323172    c      6.000     0
          4.16521048    6.73042724    6.78656367    h      1.000     0
         11.18970690    4.80597224    8.99904421    h      1.000     0
         15.21320585    2.37056734    9.17777612    h      1.000     0
         15.13684087   -2.32114253    9.33324275    h      1.000     0
         11.03716062   -4.62959334    9.32103224    h      1.000     0
          4.03644102   -6.34329729    7.04263545    h      1.000     0
         -3.14138618   -2.28540359    2.64745903    h      1.000     0
          3.96530935   -6.59846439   -6.68915678    h      1.000     0
         -3.04604674   -2.30992654   -2.26294923    h      1.000     0
         10.91341035   -5.04732998   -9.10932776    h      1.000     0
         15.02519795   -2.76377853   -9.03815413    h      1.000     0
         15.12532094    1.92763790   -8.86771789    h      1.000     0
         11.11491929    4.38530722   -8.74538054    h      1.000     0
         -3.30083416    2.68011233   -2.48678961    h      1.000     0
          4.16431008    6.37369368   -6.73974297    h      1.000     0
         16.65277432    6.30701252   -1.58998441    h      1.000     0
         16.62432843    6.34788789    1.78665982    h      1.000     0
         15.68504727    2.43752895    4.19294025    h      1.000     0
         15.64358375   -2.24532321    4.24944877    h      1.000     0
         15.78291239   -2.34497760   -3.86298879    h      1.000     0
         15.82854002    2.34051070   -3.91745413    h      1.000     0
         16.53547890   -6.26801370   -1.44353135    h      1.000     0
         16.52765453   -6.22589455    1.93339381    h      1.000     0
         -3.10621864    2.65566460    2.56122656    h      1.000     0
         -1.01509507    0.29946705    8.98278440    h      1.000     0
         -0.67333824   -8.56931239    0.22989935    h      1.000     0
         -1.22093057    0.00118099   -8.76164149    h      1.000     0
         -0.60664723    8.83205893   -0.05811406    h      1.000     0
         -5.05348033    2.27943723    8.39055098    h      1.000     0
         -5.11539666   -0.95692180    9.11090229    h      1.000     0
         -4.75933302    8.32173746   -1.98342989    h      1.000     0
         -4.66888249    9.25452382    1.19694978    h      1.000     0
         -5.36036250    1.93726869   -7.81255321    h      1.000     0
         -5.28178330   -1.24816529   -8.73157374    h      1.000     0
         -4.77332939   -8.01976768   -1.86002381    h      1.000     0
         -4.78357866   -8.91273000    1.33464813    h      1.000     0
         -6.29893423    1.15057596    3.85493878    h      1.000     0
         -6.35878280   -2.03717391    4.78703901    h      1.000     0
         -5.83777147   -3.44943622   -0.19770361    h      1.000     0
         -6.43004153   -4.94170552    2.70416451    h      1.000     0
         -6.19033663    0.45340535   -3.27865429    h      1.000     0
         -6.31441585   -2.65898497   -4.44121259    h      1.000     0
         -6.07231103    3.86480832   -0.35934432    h      1.000     0
         -6.23530100    5.23610211    2.66422303    h      1.000     0
        -10.15872164    2.86312999    7.04584378    c      6.000     0
         -9.73197041   -1.09934109    7.92951039    h      1.000     0
        -10.59513303   -0.50610629    4.77718544    h      1.000     0
         -9.05839111   -6.24109716   -2.27703603    h      1.000     0
        -10.25147636   -4.19757076    0.05442977    h      1.000     0
        -10.27911311   -8.13373998    1.13113250    c      6.000     0
         -9.76066261    1.59279232   -6.28632314    h      1.000     0
        -10.51490993   -0.52514690   -3.83962083    h      1.000     0
        -10.44087860   -2.22993567   -7.54547777    c      6.000     0
         -9.68780393    6.82077035   -2.74031610    c      6.000     0
         -9.45946721    8.33129125    1.05235587    h      1.000     0
        -10.40247180    5.14894529    0.91440025    h      1.000     0
        -12.97912311    3.12793134    7.68840205    c      6.000     0
         -9.04128404    3.49007831    8.67464705    h      1.000     0
         -9.69383025    4.15289184    5.48542903    h      1.000     0
        -12.47521012    7.41638009   -3.30144797    c      6.000     0
         -8.51150747    8.32564703   -3.54384144    h      1.000     0
         -9.15347965    5.07274080   -3.72551941    h      1.000     0
        -13.30383610   -2.02092623   -7.98936779    c      6.000     0
         -9.46025240   -1.95773655   -9.35085167    h      1.000     0
         -9.98889076   -4.15822727   -6.91499003    h      1.000     0
        -13.06264698   -8.56217008    0.41991464    c      6.000     0
         -9.20115795   -9.85407489    0.71193629    h      1.000     0
        -10.14004552   -7.83705443    3.18428419    h      1.000     0
        -13.69462478  -10.35691617    1.24346352    h      1.000     0
        -14.83165350   -6.44446543    1.30543049    c      6.000     0
        -13.21448032   -8.78015503   -1.63956719    h      1.000     0
        -13.30929878    5.01318037    8.48604626    h      1.000     0
        -14.73733785    2.74897402    5.41690715    c      6.000     0
        -13.46671739    1.76908899    9.18048610    h      1.000     0
        -12.65727462    7.92424434   -5.30365765    h      1.000     0
        -14.28434349    5.22830172   -2.72158803    c      6.000     0
        -13.04327188    9.09577066   -2.22083717    h      1.000     0
        -13.81772442   -3.22336251   -9.59844332    h      1.000     0
        -14.90103535   -2.78559688   -5.69597951    c      6.000     0
        -13.76825253   -0.07458522   -8.54404774    h      1.000     0
        -16.71862212    3.00042370    5.95855995    h      1.000     0
        -14.31164963    4.12273306    3.92538644    h      1.000     0
        -14.54969591    0.85509155    4.60312649    h      1.000     0
        -16.23537561    5.73375752   -3.19095983    h      1.000     0
        -13.78241578    3.54871611   -3.82391627    h      1.000     0
        -14.24299757    4.70301038   -0.72069165    h      1.000     0
        -16.92098135   -2.70838285   -6.13843609    h      1.000     0
        -14.45474564   -4.71931906   -5.10119582    h      1.000     0
        -14.57315263   -1.53846324   -4.07754367    h      1.000     0
        -16.80040648   -6.87659514    0.83728095    h      1.000     0
        -14.70671257   -6.19448699    3.35913068    h      1.000     0
        -14.36826071   -4.63317741    0.41917621    h      1.000     0
 
       center of nuclear mass  :    2.53492165    0.02342712    0.05384115
       center of nuclear charge:    2.21373599    0.02044333    0.04695119

              +--------------------------------------------------+
              |               basis set information              |
              +--------------------------------------------------+

              we will work with the 1s 3p 5d 7f 9g ... basis set
              ...i.e. with spherical basis functions...

   type   atoms  prim   cont   basis
   ---------------------------------------------------------------------------
    c       88     77     57   def2-QZVP   [7s4p3d2f1g|15s8p3d2f1g]
    o       12     77     57   def2-QZVP   [7s4p3d2f1g|15s8p3d2f1g]
    n       10     77     57   def2-QZVP   [7s4p3d2f1g|15s8p3d2f1g]
    h       80     33     30   def2-QZVP   [4s3p2d1f|7s3p2d1f]
   ---------------------------------------------------------------------------
   total:  190  11110   8670
   ---------------------------------------------------------------------------

   total number of primitive shells          :  100
   total number of contracted shells         : 2670
   total number of cartesian basis functions :10720
   total number of SCF-basis functions       : 8670


 integral neglect threshold       :  0.31E-14
 integral storage threshold THIZE :  0.10E-04
 integral storage threshold THIME :         5

 RI-J AUXILIARY BASIS SET information:

              we will work with the 1s 3p 5d 7f 9g ... basis set
              ...i.e. with spherical basis functions...

   type   atoms  prim   cont   basis
   ---------------------------------------------------------------------------
    c       88     70     49   def2-QZVP   [6s4p3d1f1g|12s5p4d2f1g]
    o       12     70     49   def2-QZVP   [6s4p3d1f1g|12s5p4d2f1g]
    n       10     70     49   def2-QZVP   [6s4p3d1f1g|12s5p4d2f1g]
    h       80     16     11   def2-QZVP   [3s1p1d|5s2p1d]
   ---------------------------------------------------------------------------
   total:  190   8980   6270
   ---------------------------------------------------------------------------

   total number of primitive shells          :   80
   total number of contracted shells         : 2050
   total number of cartesian basis functions : 7670
   total number of SCF-basis functions       : 6270


 symmetry group of the molecule :   c1 

 the group has the following generators :
   c1(z)

    1 symmetry operations found

 there are 1 real representations :   a   

 maximum number of shells which are related by symmetry :  1


    mo occupation :
   irrep   mo's   occupied
    a     8670      387
 
 number of basis functions   :         8670
 number of occupied orbitals :          387
 
  
           ------------------
           density functional
           ------------------
 PBE functional
 exchange:    LDA + PBE
 correlation: LDA (PW) + PBE
 grinp -> nfun, dfgga, dfhybrid 
           6 T F
 iterations will be done with small grid
  
 spherical integration : Lebedev's spherical grid
 spherical gridsize    :           5
    i.e. gridpoints    :         590
 value for diffuse not defined
 radial integration    : Chebyshev 2nd kind (scaling 3)
 radial gridsize       :           8
 integration cells     :         190
 partition function    : becke
 partition sharpness   :           3
  

 <rddim> : input of entry tasksize
           from data group '$pardft' failed !

               Default values taken

 <rddim> : input of entry memdiv
           from data group '$pardft' failed !

               Default values taken
  RIDFT: memory allocation for DFT gridpoints
  MEMORY is divided by 1 as DEFAULT
 Each node can hold at most  the            1 -th part
 of the gridpoints    

 biggest AO integral is expected to be     6.990327543
  
           ------------------------
               RI-J - INFORMATION
           ------------------------
 
 
 **************************************************
 *      MEMORY ALLOCATION FOR PARALLEL RI-DFT     *
 **************************************************
 
 
MEMORY FOR (MU NU/ ALPHA), SEQUENTIAL RUN              34669 MByte
 
            DIFFERENCE IN MEMORY NEED:       DIAG./SLAVE  
 
      TOTAL DIFFERENCE :                   3379 MByte
 
      difference in xcore:                  332 MByte
      difference in fatmat:                1023 MByte
      getcor calls skipped by slaves:      2025 MByte
 
 
           Integral memory available for diagonal.     34669 MByte
 
           Integral memory available for slave             0 MByte
 
         MEMORY FOR (MU NU/ ALPHA) ON DIAGONALIZER     34669 MByte
 
         MEMORY FOR (MU NU/ ALPHA) ON ONE SLAVE            0 MByte
 
         TOTAL MEMORY FOR (MU NU/ ALPHA),ALL NODES     34669 MByte
 
 Contributions to RI integral batches: 
  neglected integral batches:     2675376
  direct contribution:             726916
  memory contribution:      163493
 Memory core needed for (P|Q) and Cholesky    300 MByte
 Memory core minimum needed except of (P|Q)    37 MByte
 Total minimum memory core needed (sum)       337 MByte
     number of direct tasks:         160
  
 ****************************************
 Memory allocated for RI-J 35005 MByte
 ****************************************
                                            

          ------------------------
          nuclear repulsion energy  :   24531.7657221    
          ------------------------

 
          -----------------
          -S integrals
          -----------------

 1e-integrals will be neglected if expon. factor < 0.311750E-15
 
          -----------------
          -T+V integrals
          -----------------

 1e-integrals will be neglected if expon. factor < 0.311750E-15
 Difference densities >>NOT<< switched on in parallel ridft!

 automatic virtual orbital shift switched on 
      shift if e(lumo)-e(homo) < 0.10000000    


 DIIS switched on: error vector is FDS-SDF
 Max. Iterations for DIIS is     :   4
 DIIS matrix (see manual) 
    Scaling factor of diagonals  :  1.200
    threshold for scaling factor :  0.000

 scf convergence criterion : increment of total energy < .1000000D-08
                  and increment of one-electron energy < .1000000D-05


 <geterg> : there is no data group $energy 

  MOs are in ASCII format !


 reading orbital data $scfmo  from file mos . 

 orbital characterization : scfdump=13
 

 DSCF restart information will be dumped onto file mos


 Starting SCF iterations


 ITERATION  ENERGY          1e-ENERGY        2e-ENERGY     RMS[dD(SAO)]   TOL
   1  -4847.9476705696    -55530.463102     26150.749710    0.000D+00 0.311D-14
                            Exc = -674.476831259     Coul =  26825.2265409    
                              N = 774.00329123    
                            current damping = 0.700
 
          max. resid. norm for Fia-block=  9.099D-06 for orbital    369a         
          max. resid. fock norm         =  2.091D-05 for orbital   8268a         

 ITERATION  ENERGY          1e-ENERGY        2e-ENERGY     RMS[dD(SAO)]   TOL
   2  -4847.9476705646    -55530.460533     26150.747140    0.319D-07 0.311D-14
                            Exc = -674.476920792     Coul =  26825.2240608    
                              N = 774.00329124    
                            current damping = 0.700
 
          Norm of current diis error: 0.53531E-03
          max. resid. norm for Fia-block=  3.325D-06 for orbital    369a         
          max. resid. fock norm         =  6.159D-06 for orbital   8268a         

 DENSITY CONVERGED !


 ITERATION  ENERGY          1e-ENERGY        2e-ENERGY     RMS[dD(SAO)]   TOL
   3  -4847.9476705703    -55530.461230     26150.747838    0.980D-08 0.311D-14
                            Exc = -674.476895201     Coul =  26825.2247327    
                              N = 774.00329124    
                            current damping = 0.650
 
          Norm of current diis error: 0.25482E-03
          max. resid. norm for Fia-block=  1.591D-06 for orbital    367a         
          max. resid. fock norm         =  3.669D-06 for orbital   8268a         

 DENSITY CONVERGED !


 ITERATION  ENERGY          1e-ENERGY        2e-ENERGY     RMS[dD(SAO)]   TOL
   4  -4847.9476705719    -55530.461859     26150.748466    0.725D-08 0.311D-14
                            Exc = -674.476877926     Coul =  26825.2253442    
                              N = 774.00329123    
                            current damping = 0.500
 
          Norm of current diis error: 0.74783E-04
          max. resid. norm for Fia-block=  7.599D-07 for orbital    369a         
          max. resid. fock norm         =  1.510D-06 for orbital   8276a         

 DENSITY CONVERGED !


 ITERATION  ENERGY          1e-ENERGY        2e-ENERGY     RMS[dD(SAO)]   TOL
   5  -4847.9476705717    -55530.461923     26150.748530    0.280D-08 0.311D-14
                            Exc = -674.476869996     Coul =  26825.2254003    
                              N = 774.00329123    
                            current damping = 0.350
 
          Norm of current diis error: 0.30629E-04
          max. resid. norm for Fia-block=  2.771D-07 for orbital    382a         
          max. resid. fock norm         =  6.058D-07 for orbital   8602a         
          mo-orthogonalization: Cholesky decomposition

 DENSITY CONVERGED !


 ITERATION  ENERGY          1e-ENERGY        2e-ENERGY     RMS[dD(SAO)]   TOL
   6  -4847.9476705719    -55530.462055     26150.748662    0.146D-08 0.311D-14
                            Exc = -674.476868728     Coul =  26825.2255309    
                              N = 774.00329123    
                            current damping = 0.200
 
          Norm of current diis error: 0.10878E-04
          max. resid. norm for Fia-block=  1.018D-07 for orbital    369a         
          max. resid. fock norm         =  2.396D-07 for orbital   8660a         
          irrep a   : virtual orbitals shifted by    0.00777

 ENERGY & DENSITY CONVERGED !


 ITERATION  ENERGY          1e-ENERGY        2e-ENERGY     RMS[dD(SAO)]   TOL
   7  -4847.9471446764    -55530.462042     26150.749175    0.588D-09 0.311D-14
                            Exc = -674.476344279     Coul =  26825.2255196    
                              N = 774.00038361    
                            current damping = 0.250
 
          Norm of current diis error: 0.79826E-05
          max. resid. norm for Fia-block=  5.619D-08 for orbital    377a         
          max. resid. fock norm         =  1.370D-07 for orbital   8661a         

 End of SCF iterations

   convergence criteria satisfied after    7 iterations


                  ------------------------------------------ 
                 |  total energy      =  -4847.94714467638  |
                  ------------------------------------------ 
                 :  kinetic energy    =   4827.02678131334  :
                 :  potential energy  =  -9674.97392598971  :
                 :  virial theorem    =      1.99568469648  :
                 :  wavefunction norm =      1.00000000000  :
                  .......................................... 


 <geterg> : there is no data group $energy 


 <skperg> : $end is missing 


 orbitals $scfmo  will be written to file mos

    irrep                383a        384a        385a        386a        387a   
 eigenvalues H         -0.22742    -0.22229    -0.21980    -0.21730    -0.21520
            eV          -6.1883     -6.0488     -5.9812     -5.9130     -5.8560
 occupation              2.0000      2.0000      2.0000      2.0000      2.0000 

    irrep                388a        389a        390a        391a        392a   
 eigenvalues H         -0.13834    -0.13785    -0.12558    -0.12495    -0.10824
            eV          -3.7644     -3.7510     -3.4173     -3.4000     -2.9453
 
 
 ! grave: sending quit signal to master process
 
 
 
 
 ==============================================================================
                           electrostatic moments
 ==============================================================================

 reference point for electrostatic moments:    0.00000   0.00000   0.00000

 
              nuc           elec       ->  total
 ------------------------------------------------------------------------------
                          charge      
 ------------------------------------------------------------------------------
         774.000000    -774.000000      -0.000000
 
 ------------------------------------------------------------------------------
                       dipole moment  
 ------------------------------------------------------------------------------
   x    1713.431653   -1714.149068      -0.717416
   y      15.823140     -15.851212      -0.028073
   z      36.340219     -36.400001      -0.059781
 
   | dipole moment | =     0.7204 a.u. =     1.8312 debye 
 
 ------------------------------------------------------------------------------
                     quadrupole moment
 ------------------------------------------------------------------------------
  xx   63064.454733  -63498.018605    -433.563872
  yy   21074.682533  -21559.972786    -485.290252
  zz   24284.898155  -24792.525773    -507.627618
  xy     445.782615    -446.381503      -0.598888
  xz    1179.496724   -1178.770392       0.726332
  yz     529.547008    -529.998091      -0.451084
 
     1/3  trace=    -475.493914
     anisotropy=      65.827627
 
 ==============================================================================
 

    ridft profiling
  --------------------------------------------------------------------
             module   cpu total (s)       %  wall total (s)       %

               RIDFT         16096.9  100.00         16464.2  100.00
         Ridft_b_scf          1165.7    7.24          1166.9    7.09
        b_scf_prelim             0.0    0.00             0.0    0.00
        b_scf_molinp             0.1    0.00             0.1    0.00
         b_scf_init0             0.0    0.00             0.0    0.00
        b_scf_auxbas             0.0    0.00             0.0    0.00
      b_scf_symmetry             0.0    0.00             0.0    0.00
         b_scf_cosmo             0.0    0.00             0.0    0.00
        b_scf_params           128.1    0.80           128.3    0.78
          b_scf_ri-j           338.1    2.10           338.3    2.05
    b_scf_ri-j_auxpq           337.5    2.10           337.8    2.05
     ri-j_auxpq_chol            25.5    0.16            25.5    0.15
         b_scf_1elec            61.0    0.38            61.0    0.37
       b_scf_moinput           638.5    3.97           639.1    3.88
     moinput_orthmos           524.2    3.26           524.8    3.19
    b_scf_dft-dstmax             0.0    0.00             0.0    0.00
           Ridft_scf         14912.3   92.64         15277.8   92.79
          Scf_b_loop             0.0    0.00             0.0    0.00
                noga             0.0    0.00             0.0    0.00
            Scf_loop         14851.8   92.26         15215.2   92.41
     scf_loop_mkdmat           116.5    0.72           125.9    0.76
       scf_loop_ri-j          4162.2   25.86          4296.4   26.10
      parlp1.bc.dens            78.1    0.49            78.2    0.47
        parlp1.gs.gp             1.1    0.01             1.1    0.01
        parlp2.bc.gq             0.0    0.00             0.0    0.00
        scf_loop_dft          5038.5   31.30          5070.3   30.80
      pardft.bc.dens             0.0    0.00             0.0    0.00
        dft_grid_con            26.9    0.17            27.1    0.16
           dft_xcrhf          4503.7   27.98          4521.8   27.46
          dft_getval           109.1    0.68           109.4    0.66
          funct2 dst             1.9    0.01             1.9    0.01
      funct2 f2loop1            15.8    0.10            15.9    0.10
      funct2 f2loop2            45.6    0.28            45.8    0.28
          funct2 s+c            44.2    0.27            44.2    0.27
        funct2 cmf_2            40.0    0.25            40.0    0.24
          dft_mkdens          1989.4   12.36          2000.6   12.15
         dft_gga-fun             0.9    0.01             0.9    0.01
          dft_mkfock          2403.2   14.93          2410.0   14.64
     pardft.red.fock          1296.2    8.05          1313.3    7.98
     scf_loop_energy             1.7    0.01            11.4    0.07
     scf_loop_mkfock             1.3    0.01             1.3    0.01
       scf_loop_diis          2187.9   13.59          2251.4   13.67
       scf_loop_diag          2578.9   16.02          2638.9   16.03
         diag_tritrn           952.8    5.92           994.9    6.04
          diag_rdiag          1623.5   10.09          1641.4    9.97
     scf_loop_modump           336.5    2.09           386.7    2.35
      scf_loop_ortho           414.8    2.58           415.6    2.52
          Scf_a_loop            60.5    0.38            62.7    0.38
         Ridft_a_scf            18.9    0.12            19.5    0.12
         a_scf_fanal            16.2    0.10            16.5    0.10
 


    ------------------------------------------------------------------------
         total  cpu-time :  4 hours 29 minutes and 37 seconds
         total wall-time :  4 hours 35 minutes and 45 seconds
    ------------------------------------------------------------------------


   ****  ridft : all done  ****


    2017-11-13 17:58:31.218 

