           Doing BLAS/Lapack in the master proc. with  8 CPUs.
           SMPCPUS    set: Shared-memory Parallelization with   8 CPUs.

           SMP Parallelization Reference:
           C. van Wullen, J. Comput. Chem. 32 (2011) 1195--1201
 operating system is UNIX !

 ridft (c-18-413.gp.local) : TURBOMOLE V7.2 ( 21454 ) 4 Oct 2017 at 12:48:15
 Copyright (C) 2017 TURBOMOLE GmbH, Karlsruhe


    2018-04-24 21:16:29.583 



                                  r i d f t

                        DFT program with RI approximation 
                                for coulomb part 




                                                 
                                 References:     
                                                 
          TURBOMOLE:                             
              R. Ahlrichs, M. Baer, M. Haeser, H. Horn, and
              C. Koelmel
              Electronic structure calculations on workstation
              computers: the program system TURBOMOLE
              Chem. Phys. Lett. 162: 165 (1989)
          Density Functional:                              
              O. Treutler and R. Ahlrichs                      
              Efficient Molecular Numerical Integration Schemes
              J. Chem. Phys. 102: 346 (1995)                   
          Parallel Version:                                
              Performance of parallel TURBOMOLE for Density    
              Functional Calculations                          
              M. v. Arnim and R. Ahlrichs                      
              J. Comp. Chem. 19: 1746 (1998)                   
          RI-J Method:                                     
              Auxiliary Basis Sets to approximate Coulomb      
              Potentials                                       
              Chem. Phys. Lett. 240: 283 (1995)                
              K. Eichkorn, O. Treutler, H. Oehm, M. Haeser     
              and R. Ahlrichs                                  
              Chem. Phys. Lett. 242: 652 (1995)                
                                                           
              Auxiliary Basis Sets for Main Row Atoms and their
              Use to approximate Coulomb Potentials            
              K. Eichkorn, F. Weigend, O. Treutler and         
              R. Ahlrichs                                      
              Theo. Chem. Acc. 97: 119 (1997)                   
                                                           
              Accurate Coulomb-fitting basis sets for H to Rn 
              F. Weigend                                        
              Phys. Chem. Chem. Phys. 8: 1057 (2006)            
                                                           
          Multipole accelerated RI-J (MARI-J):             
              Fast evaluation of the Coulomb potential for     
              electron densities using multipole accelerated   
              resolution of identity approximation             
              M. Sierka, A. Hogekamp and R. Ahlrichs           
              J. Chem. Phys. 118: 9136 (2003)                  
          RI-JK Method:                                     
              A fully direct RI-HF algorithm: Implementation,
              optimised auxiliary basis sets, demonstration of
              accuracy and efficiency                         
              F. Weigend                                      
              Phys. Chem. Chem. Phys. 4: 4285 (2002)           
          Two-component HF and DFT with spin-orbit coupling:  
              Self-consistent treatment of spin-orbit         
              interactions with efficient Hartree-Fock and    
              density functional methods                      
              M. K. Armbruster, F. Weigend, C. van Wüllen and 
              W. Klopper                                      
              Phys. Chem. Chem. Phys. 10: 1748 (2008)         
          Relativistic all-electron 2c calculations           
              An efficient implementation of two-component    
              relativistic exact-decoupling methods for large 
              molecules                                       
              D. Peng, N. Middendorf, F. Weigend, M. Reiher   
              J. Chem. Phys. 138, 184105 (2013)               
                                         




              +--------------------------------------------------+
              |      general information about current run       |
              +--------------------------------------------------+

 

 DENSITY CONVERGENCE CHECK SWITCHED ON !
 SCF CONVERGENCE IF RMS(delta[D]) <     0.1000000000E-06

 TPSS meta-GGA functional
 exchange:    LDA + TPSS
 correlation: LDA (PW) + TPSS
 A DFT calculation using the RI-J approximation will be carried out.
 Allocatable memory for RI due to $ricore (MB):                   500


              +--------------------------------------------------+
              | Atomic coordinate, charge and isotop information |
              +--------------------------------------------------+

                    atomic coordinates            atom    charge  isotop
         -2.32951643    2.28966581   -0.26763069    c      6.000     0
         -1.07955646    4.23679572    0.04840871    o      8.000     0
         -1.26721351    0.00734873   -0.59390591    n      7.000     0
          0.64977656   -0.17113380   -0.58265296    h      1.000     0
         -2.35122321   -1.52373097   -0.84410799    h      1.000     0
         -5.17453305    2.39382506   -0.29458293    c      6.000     0
         -5.81653043    3.11163270    1.52028768    h      1.000     0
         -6.05112046    0.57233283   -0.65424419    h      1.000     0
         -5.76364103    3.73313601   -1.73589745    h      1.000     0
          7.92780344    2.11163411   -0.22590150    n      7.000     0
          8.85382489    0.45631493   -0.44877291    h      1.000     0
          9.44643651    4.27129806    0.05846769    c      6.000     0
         11.74351584    4.09059805    0.02977262    o      8.000     0
          7.98644889    6.56791337    0.36676505    c      6.000     0
          8.97243805    8.33139231    0.59926774    h      1.000     0
          5.43690463    6.45136351    0.35603754    c      6.000     0
          4.26451088    8.10744464    0.57841465    h      1.000     0
          4.14228707    4.23607251    0.06395057    n      7.000     0
          2.19059592    4.21894958    0.06236827    h      1.000     0
          5.33449633    1.95995503   -0.24267646    c      6.000     0
          4.20597318   -0.05055477   -0.51065378    o      8.000     0
 
       center of nuclear mass  :    3.75587701    3.13141367   -0.11280522
       center of nuclear charge:    3.59699613    3.12378403   -0.11553148

              +--------------------------------------------------+
              |               basis set information              |
              +--------------------------------------------------+

              we will work with the 1s 3p 5d 7f 9g ... basis set
              ...i.e. with spherical basis functions...

   type   atoms  prim   cont   basis
   ---------------------------------------------------------------------------
    c        6     77     55   cc-pVQZ   [5s4p3d2f1g|21s6p3d2f1g]
    o        3     77     55   cc-pVQZ   [5s4p3d2f1g|21s6p3d2f1g]
    n        3     77     55   cc-pVQZ   [5s4p3d2f1g|21s6p3d2f1g]
    h        9     32     30   cc-pVQZ   [4s3p2d1f|6s3p2d1f]
   ---------------------------------------------------------------------------
   total:   21   1212    930
   ---------------------------------------------------------------------------

   total number of primitive shells          :  111
   total number of contracted shells         :  270
   total number of cartesian basis functions : 1155
   total number of SCF-basis functions       :  930


 integral neglect threshold       :  0.29E-13
 integral storage threshold THIZE :  0.10E-04
 integral storage threshold THIME :         5

 RI-J AUXILIARY BASIS SET information:

              we will work with the 1s 3p 5d 7f 9g ... basis set
              ...i.e. with spherical basis functions...

   type   atoms  prim   cont   basis
   ---------------------------------------------------------------------------
    c        6     70     49   cc-pVQZ   [6s4p3d1f1g|12s5p4d2f1g]
    o        3     70     49   cc-pVQZ   [6s4p3d1f1g|12s5p4d2f1g]
    n        3     70     49   cc-pVQZ   [6s4p3d1f1g|12s5p4d2f1g]
    h        9     16     11   cc-pVQZ   [3s1p1d|5s2p1d]
   ---------------------------------------------------------------------------
   total:   21    984    687
   ---------------------------------------------------------------------------

   total number of primitive shells          :   80
   total number of contracted shells         :  225
   total number of cartesian basis functions :  840
   total number of SCF-basis functions       :  687


 symmetry group of the molecule :   c1 

 the group has the following generators :
   c1(z)

    1 symmetry operations found

 there are 1 real representations :   a   

 maximum number of shells which are related by symmetry :  1


    mo occupation :
   irrep   mo's   occupied
    a      930       45
 
 number of basis functions   :                    930
 number of occupied orbitals :                     45
 
  
           ------------------
           density functional
           ------------------
 TPSS meta-GGA functional
 exchange:    LDA + TPSS
 correlation: LDA (PW) + TPSS

 iterations will be done with small grid
  
 spherical integration : Lebedev's spherical grid
 spherical gridsize    :                     5
    i.e. gridpoints    :                   590
 value for diffuse not defined
 radial integration    : Chebyshev 2nd kind (scaling 3)
 radial gridsize       :                     8
 integration cells     :                    21
 partition function    : becke
 partition sharpness   :                     3
  

 biggest AO integral is expected to be     4.785886462
  
           ------------------------
               RI-J - INFORMATION
           ------------------------
 Contributions to RI integral batches: 
  neglected integral batches:                 12550
  direct contribution:                        17426
  memory contribution:                  6609
 Memory core needed for (P|Q) and Cholesky      4 MByte
 Memory core minimum needed except of (P|Q)     1 MByte
 Total minimum memory core needed (sum)         5 MByte
  
 ****************************************
 Memory allocated for RI-J   181 MByte
 ****************************************
                                            

          ------------------------
          nuclear repulsion energy  :   682.464506840    
          ------------------------


         -----------------
         -S,T+V- integrals
         -----------------

 1e-integrals will be neglected if expon. factor < 0.289347E-14
 Difference densities >>NOT<< switched on in parallel ridft!

 DIIS switched on: error vector is FDS-SDF
 Max. Iterations for DIIS is     :   4
 DIIS matrix (see manual) 
    Scaling factor of diagonals  :  1.200
    threshold for scaling factor :  0.000

 scf convergence criterion : increment of total energy < .1000000D-08
                  and increment of one-electron energy < .1000000D-05

  MOs are in ASCII format !


 automatic virtual orbital shift switched on 
      shift if e(lumo)-e(homo) < 0.10000000    


 reading orbital data $scfmo  from file mos
 orbital characterization : expanded
 mo provided and orthogonalized by Cholesky decomposition

 DSCF restart information will be dumped onto file mos


 Starting SCF iterations

          Overall gridpoints after grid construction =        105386

 ITERATION  ENERGY          1e-ENERGY        2e-ENERGY     RMS[dD(SAO)]   TOL
   1  -621.65469978350    -2190.7884185     886.66921189    0.000D+00 0.289D-13
                            Exc = -82.2079227760     Coul =  968.877134669    
                              N = 90.000052112    
                            current damping = 0.700
 
          max. resid. norm for Fia-block=  4.331D-01 for orbital     31a         
          max. resid. fock norm         =  1.124D+01 for orbital    884a         

 ITERATION  ENERGY          1e-ENERGY        2e-ENERGY     RMS[dD(SAO)]   TOL
   2  -624.00508515991    -2199.4439631     892.97437115    0.328D-02 0.289D-13
                            Exc = -82.2548201320     Coul =  975.229191282    
                              N = 90.000043678    
                            current damping = 0.650
 
          Norm of current diis error:  3.9608    
          max. resid. norm for Fia-block=  1.654D-01 for orbital      3a         
          max. resid. fock norm         =  3.649D-01 for orbital    846a         

 ITERATION  ENERGY          1e-ENERGY        2e-ENERGY     RMS[dD(SAO)]   TOL
   3  -624.32244473553    -2203.2515410     896.46458946    0.185D-02 0.289D-13
                            Exc = -82.6886242763     Coul =  979.153213735    
                              N = 90.000038598    
                            current damping = 0.550
 
          Norm of current diis error:  1.8863    
          max. resid. norm for Fia-block=  6.440D-02 for orbital      3a         
          max. resid. fock norm         =  7.777D-02 for orbital    497a         

 ITERATION  ENERGY          1e-ENERGY        2e-ENERGY     RMS[dD(SAO)]   TOL
   4  -624.41657011169    -2203.4301727     896.54909579    0.143D-02 0.289D-13
                            Exc = -82.6025924552     Coul =  979.151688247    
                              N = 90.000037003    
                            current damping = 0.400
 
          Norm of current diis error: 0.81983    
          max. resid. norm for Fia-block=  3.250D-02 for orbital     15a         
          max. resid. fock norm         =  7.249D-02 for orbital    835a         

 ITERATION  ENERGY          1e-ENERGY        2e-ENERGY     RMS[dD(SAO)]   TOL
   5  -624.42977309225    -2204.2232151     897.32893514    0.517D-03 0.289D-13
                            Exc = -82.7609895665     Coul =  980.089924710    
                              N = 90.000035463    
                            current damping = 0.300
 
          Norm of current diis error: 0.53507    
          max. resid. norm for Fia-block=  1.128D-02 for orbital     44a         
          max. resid. fock norm         =  1.549D-02 for orbital    916a         
          mo-orthogonalization: Cholesky decomposition

 ITERATION  ENERGY          1e-ENERGY        2e-ENERGY     RMS[dD(SAO)]   TOL
   6  -624.43752151230    -2204.5509627     897.64893434    0.459D-03 0.289D-13
                            Exc = -82.7503619501     Coul =  980.399296287    
                              N = 90.000035285    
                            current damping = 0.150
 
          Norm of current diis error: 0.14060    
          max. resid. norm for Fia-block=  4.442D-03 for orbital     38a         
          max. resid. fock norm         =  1.195D-02 for orbital    929a         

 ITERATION  ENERGY          1e-ENERGY        2e-ENERGY     RMS[dD(SAO)]   TOL
   7  -624.43747563625    -2204.1462540     897.24427148    0.113D-03 0.289D-13
                            Exc = -82.7235020774     Coul =  979.967773554    
                              N = 90.000035726    
                            current damping = 0.200
 
          Norm of current diis error: 0.14456    
          max. resid. norm for Fia-block=  2.617D-03 for orbital     43a         
          max. resid. fock norm         =  5.290D-03 for orbital    879a         

 ITERATION  ENERGY          1e-ENERGY        2e-ENERGY     RMS[dD(SAO)]   TOL
   8  -624.43800307907    -2204.2771205     897.37461060    0.596D-04 0.289D-13
                            Exc = -82.7312779988     Coul =  980.105888595    
                              N = 90.000035621    
                            current damping = 0.250
 
          Norm of current diis error: 0.41838E-01
          max. resid. norm for Fia-block=  1.301D-03 for orbital     18a         
          max. resid. fock norm         =  2.109D-03 for orbital    805a         

 ITERATION  ENERGY          1e-ENERGY        2e-ENERGY     RMS[dD(SAO)]   TOL
   9  -624.43801869002    -2204.3789956     897.47647004    0.329D-04 0.289D-13
                            Exc = -82.7450006355     Coul =  980.221470677    
                              N = 90.000035422    
                            current damping = 0.100
 
          Norm of current diis error: 0.29647E-01
          max. resid. norm for Fia-block=  7.669D-04 for orbital     44a         
          max. resid. fock norm         =  1.239D-03 for orbital    805a         

 ITERATION  ENERGY          1e-ENERGY        2e-ENERGY     RMS[dD(SAO)]   TOL
  10  -624.43803806845    -2204.3733066     897.47076166    0.214D-04 0.289D-13
                            Exc = -82.7399739673     Coul =  980.210735629    
                              N = 90.000035495    
                            current damping = 0.150
 
          Norm of current diis error: 0.13841E-01
          max. resid. norm for Fia-block=  2.397D-04 for orbital     41a         
          max. resid. fock norm         =  4.171D-04 for orbital    888a         
          mo-orthogonalization: Cholesky decomposition

 ITERATION  ENERGY          1e-ENERGY        2e-ENERGY     RMS[dD(SAO)]   TOL
  11  -624.43804262863    -2204.3608356     897.45828611    0.454D-05 0.289D-13
                            Exc = -82.7405821346     Coul =  980.198868243    
                              N = 90.000035496    
                            current damping = 0.050
 
          Norm of current diis error: 0.40397E-02
          max. resid. norm for Fia-block=  9.578D-05 for orbital     40a         
          max. resid. fock norm         =  1.746D-04 for orbital    914a         

 ITERATION  ENERGY          1e-ENERGY        2e-ENERGY     RMS[dD(SAO)]   TOL
  12  -624.43804272611    -2204.3606390     897.45808943    0.216D-05 0.289D-13
                            Exc = -82.7402196979     Coul =  980.198309123    
                              N = 90.000035490    
                            current damping = 0.050
 
          Norm of current diis error: 0.33829E-02
          max. resid. norm for Fia-block=  6.238D-05 for orbital     45a         
          max. resid. fock norm         =  1.269D-04 for orbital    929a         

 ITERATION  ENERGY          1e-ENERGY        2e-ENERGY     RMS[dD(SAO)]   TOL
  13  -624.43804301986    -2204.3646078     897.46205794    0.149D-05 0.289D-13
                            Exc = -82.7405930245     Coul =  980.202650964    
                              N = 90.000035492    
                            current damping = 0.100
 
          Norm of current diis error: 0.87473E-03
          max. resid. norm for Fia-block=  2.329D-05 for orbital     45a         
          max. resid. fock norm         =  3.823D-05 for orbital    923a         

 ITERATION  ENERGY          1e-ENERGY        2e-ENERGY     RMS[dD(SAO)]   TOL
  14  -624.43804303385    -2204.3619625     897.45941259    0.445D-06 0.289D-13
                            Exc = -82.7404031097     Coul =  980.199815701    
                              N = 90.000035493    
                            current damping = 0.150
 
          Norm of current diis error: 0.52332E-03
          max. resid. norm for Fia-block=  1.277D-05 for orbital     42a         
          max. resid. fock norm         =  2.143D-05 for orbital    923a         

 ITERATION  ENERGY          1e-ENERGY        2e-ENERGY     RMS[dD(SAO)]   TOL
  15  -624.43804303872    -2204.3625433     897.45999343    0.190D-06 0.289D-13
                            Exc = -82.7404536353     Coul =  980.200447061    
                              N = 90.000035493    
                            current damping = 0.200
 
          Norm of current diis error: 0.29027E-03
          max. resid. norm for Fia-block=  7.114D-06 for orbital     42a         
          max. resid. fock norm         =  1.494D-05 for orbital    804a         
          mo-orthogonalization: Cholesky decomposition

 ITERATION  ENERGY          1e-ENERGY        2e-ENERGY     RMS[dD(SAO)]   TOL
  16  -624.43804304070    -2204.3628644     897.46031456    0.102D-06 0.289D-13
                            Exc = -82.7404664977     Coul =  980.200781058    
                              N = 90.000035492    
                            current damping = 0.050
 
          Norm of current diis error: 0.91377E-04
          max. resid. norm for Fia-block=  2.531D-06 for orbital     40a         
          max. resid. fock norm         =  6.670D-06 for orbital    804a         

 DENSITY CONVERGED !


 ITERATION  ENERGY          1e-ENERGY        2e-ENERGY     RMS[dD(SAO)]   TOL
  17  -624.43804304082    -2204.3627814     897.46023150    0.470D-07 0.289D-13
                            Exc = -82.7404665278     Coul =  980.200698030    
                              N = 90.000035493    
                            current damping = 0.100
 
          Norm of current diis error: 0.66133E-04
          max. resid. norm for Fia-block=  1.537D-06 for orbital     40a         
          max. resid. fock norm         =  2.928D-06 for orbital    804a         

 DENSITY CONVERGED !


 ITERATION  ENERGY          1e-ENERGY        2e-ENERGY     RMS[dD(SAO)]   TOL
  18  -624.43804304093    -2204.3627612     897.46021131    0.223D-07 0.289D-13
                            Exc = -82.7404622065     Coul =  980.200673514    
                              N = 90.000035493    
                            current damping = 0.050
 
          Norm of current diis error: 0.15853E-04
          max. resid. norm for Fia-block=  5.188D-07 for orbital     42a         
          max. resid. fock norm         =  8.003D-07 for orbital    833a         

 DENSITY CONVERGED !


 ITERATION  ENERGY          1e-ENERGY        2e-ENERGY     RMS[dD(SAO)]   TOL
  19  -624.43804304092    -2204.3627853     897.46023540    0.102D-07 0.289D-13
                            Exc = -82.7404651147     Coul =  980.200700515    
                              N = 90.000035493    
                            current damping = 0.100
 
          Norm of current diis error: 0.16657E-04
          max. resid. norm for Fia-block=  2.418D-07 for orbital     43a         
          max. resid. fock norm         =  4.240D-07 for orbital    857a         

 ENERGY & DENSITY CONVERGED !

          Overall gridpoints after grid construction =        336479

 ITERATION  ENERGY          1e-ENERGY        2e-ENERGY     RMS[dD(SAO)]   TOL
  20  -624.43789716944    -2204.3627857     897.46038167    0.476D-08 0.289D-13
                            Exc = -82.7403182400     Coul =  980.200699909    
                              N = 89.999998386    
                            current damping = 0.050
 
          Norm of current diis error: 0.49817E-05
          max. resid. norm for Fia-block=  8.211D-08 for orbital     44a         
          max. resid. fock norm         =  1.730D-07 for orbital    928a         

 End of SCF iterations

   convergence criteria satisfied after    20 iterations


                  ------------------------------------------ 
                 |  total energy      =   -624.43789716944  |
                  ------------------------------------------ 
                 :  kinetic energy    =    622.18332423486  :
                 :  potential energy  =  -1246.62122140430  :
                 :  virial theorem    =      1.99638943609  :
                 :  wavefunction norm =      1.00000000000  :
                  .......................................... 


 <geterg> : there is no data group $energy 


 <skperg> : $end is missing 


 orbitals $scfmo  will be written to file mos

    irrep                 41a         42a         43a         44a         45a   
 eigenvalues H         -0.25604    -0.25251    -0.23822    -0.22199    -0.22022
            eV          -6.9672     -6.8712     -6.4823     -6.0408     -5.9925
 occupation              2.0000      2.0000      2.0000      2.0000      2.0000 

    irrep                 46a         47a         48a         49a         50a   
 eigenvalues H         -0.06713    -0.02847    -0.01999    -0.00110     0.02596
            eV          -1.8266     -0.7747     -0.5441     -0.0300      0.7063
 
 
 
 
 ==============================================================================
                           electrostatic moments
 ==============================================================================

 reference point for electrostatic moments:    0.00000   0.00000   0.00000

 
              nuc           elec       ->  total
 ------------------------------------------------------------------------------
                          charge      
 ------------------------------------------------------------------------------
          90.000000     -90.000000       0.000000
 
 ------------------------------------------------------------------------------
                       dipole moment  
 ------------------------------------------------------------------------------
   x     323.729652    -325.878137      -2.148485
   y     281.140563    -281.433996      -0.293433
   z     -10.397833      10.328559      -0.069274
 
   | dipole moment | =     2.1695 a.u. =     5.5144 debye 
 
 ------------------------------------------------------------------------------
                     quadrupole moment
 ------------------------------------------------------------------------------
  xx    3576.351842   -3648.141416     -71.789574
  yy    1320.654852   -1369.277244     -48.622393
  zz      15.562489     -67.919044     -52.356554
  xy    1392.640171   -1396.446396      -3.806224
  xz      28.139532     -27.420661       0.718871
  yz      29.322100     -28.633603       0.688498
 
     1/3  trace=     -57.589507
     anisotropy=      22.596165
 
 ==============================================================================
 


    ------------------------------------------------------------------------
         total  cpu-time : 22 minutes and 34 seconds
         total wall-time :  3 minutes and 10 seconds
    ------------------------------------------------------------------------

   ****  ridft : all done  ****


    2018-04-24 21:19:39.214 

