
   OpenMP run-time library returned nthreads = 28
 operating system is UNIX !

 dscf (c-15-41) : TURBOMOLE V7.3 ( 22142 ) 4 Jul 2018 at 18:12:42
 Copyright (C) 2018 TURBOMOLE GmbH, Karlsruhe


    2019-04-01 23:39:12.859 



                             d s c f - program

                   idea & directorship : reinhart ahlrichs
                   program development : marco haeser
                                         michael baer
                           dft version : oliver treutler


                          quantum chemistry group
                          universitaet  karlsruhe
                                  germany




                          References             
                                                 
          TURBOMOLE:                             
              R. Ahlrichs, M. Baer, M. Haeser, H. Horn, and
              C. Koelmel
              Electronic structure calculations on workstation
              computers: the program system TURBOMOLE
              Chem. Phys. Lett. 162: 165 (1989)
          Density Functional:                              
              O. Treutler and R. Ahlrichs                      
              Efficient Molecular Numerical Integration Schemes
              J. Chem. Phys. 102: 346 (1995)                   
          Parallel Version:                                
              Performance of parallel TURBOMOLE for Density    
              Functional Calculations                          
              M. v. Arnim and R. Ahlrichs                      
              J. Comp. Chem. 19: 1746 (1998)                   
                                         




              +--------------------------------------------------+
              | Atomic coordinate, charge and isotop information |
              +--------------------------------------------------+

                    atomic coordinates            atom    charge  isotop
         -5.18508954   -0.50883251    0.00000000    o      8.000     0
         -4.87365513   -2.29409747    0.00000000    h      1.000     0
         -3.50833376    0.19337144    0.00000000    h      1.000     0
 
       center of nuclear mass  :   -5.07384901   -0.56943048    0.00000000
       center of nuclear charge:   -4.98627052   -0.61713861    0.00000000

              +--------------------------------------------------+
              |               basis set information              |
              +--------------------------------------------------+

              we will work with the 1s 3p 5d 7f 9g ... basis set
              ...i.e. with spherical basis functions...

   type   atoms  prim   cont   basis
   ---------------------------------------------------------------------------
    o        1     77     55   cc-pVQZ   [5s4p3d2f1g|21s6p3d2f1g]
    h        2     32     30   cc-pVQZ   [4s3p2d1f|6s3p2d1f]
   ---------------------------------------------------------------------------
   total:    3    141    115
   ---------------------------------------------------------------------------

   total number of primitive shells          :   45
   total number of contracted shells         :   35
   total number of cartesian basis functions :  140
   total number of SCF-basis functions       :  115


 integral neglect threshold       :  0.24E-12
 integral storage threshold THIZE :  0.10E-04
 integral storage threshold THIME :         5


 DENSITY CONVERGENCE CHECK SWITCHED ON !
 SCF CONVERGENCE IF RMS(delta[D]) <     0.1000000000E-06


 symmetry group of the molecule :   c1 

 the group has the following generators :
   c1(z)

    1 symmetry operations found

 there are 1 real representations :   a   

 maximum number of shells which are related by symmetry :  1


    mo occupation :
   irrep   mo's   occupied
    a      115        5
 
 number of basis functions   :                    115
 number of occupied orbitals :                      5
 

 automatic virtual orbital shift switched on 
      shift if e(lumo)-e(homo) < 0.10000000    


          ------------------------
          nuclear repulsion energy  :   9.16766819325    
          ------------------------


         -----------------
         -S,T+V- integrals
         -----------------

 1e-integrals will be neglected if expon. factor < 0.238712E-13
 
   Difference densities algorithm switched on.
   The maximal number of linear combinations of
   difference densities is                    20 .

 DIIS switched on: error vector is FDS-SDF
 Max. Iterations for DIIS is     :   5
 DIIS matrix (see manual) 
    Scaling factor of diagonals  :  1.200
    threshold for scaling factor :  0.000

 scf convergence criterion : increment of total energy < .1000000D-08
                  and increment of one-electron energy < .1000000D-05

  MOs are in ASCII format !


 reading orbital data $scfmo  from file mos
 orbital characterization : scfconv=9

 DSCF restart information will be dumped onto file mos

 
                                              current damping :  0.700
 ITERATION  ENERGY          1e-ENERGY        2e-ENERGY     RMS[dD(SAO)]   TOL
   1  -76.055488290477    -123.02520886     37.802052378    0.000D+00 0.238D-12
          max. resid. norm for Fia-block=  1.189D-01 for orbital      1a         
          max. resid. fock norm         =  2.570D-01 for orbital    115a         
          Delta Eig. =    29.9355487402 eV 
 
                                              current damping :  0.650
 ITERATION  ENERGY          1e-ENERGY        2e-ENERGY     RMS[dD(SAO)]   TOL
   2  -76.062812189491    -123.01859836     37.788117979    0.129D-02 0.151D-12
          Norm of current diis error: 0.24313    
          max. resid. norm for Fia-block=  5.520D-02 for orbital      1a         
          max. resid. fock norm         =  9.760D-02 for orbital    115a         
          Delta Eig. =    12.5903015528 eV 
 
                                              current damping :  0.600
 ITERATION  ENERGY          1e-ENERGY        2e-ENERGY     RMS[dD(SAO)]   TOL
   3  -76.064146661143    -123.03779069     37.805975832    0.623D-03 0.115D-12
          Norm of current diis error: 0.10024    
          max. resid. norm for Fia-block=  2.245D-02 for orbital      1a         
          max. resid. fock norm         =  3.847D-02 for orbital    115a         
          Delta Eig. =     5.1306398100 eV 
 
                                              current damping :  0.650
 ITERATION  ENERGY          1e-ENERGY        2e-ENERGY     RMS[dD(SAO)]   TOL
   4  -76.064374033386    -123.03616587     37.804123639    0.274D-03 0.979D-13
          Norm of current diis error: 0.37968E-01
          max. resid. norm for Fia-block=  8.589D-03 for orbital      1a         
          max. resid. fock norm         =  1.410D-02 for orbital    115a         
          Delta Eig. =     1.8610856537 eV 
 
                                              current damping :  0.700
 ITERATION  ENERGY          1e-ENERGY        2e-ENERGY     RMS[dD(SAO)]   TOL
   5  -76.064407998846    -123.03830672     37.806230531    0.108D-03 0.902D-13
          Norm of current diis error: 0.15660E-01
          max. resid. norm for Fia-block=  3.398D-03 for orbital      1a         
          max. resid. fock norm         =  5.607D-03 for orbital    115a         
 mo-orthogonalization: Cholesky decomposition
          Delta Eig. =     0.7121129433 eV 
 
                                              current damping :  0.550
 ITERATION  ENERGY          1e-ENERGY        2e-ENERGY     RMS[dD(SAO)]   TOL
   6  -76.064413883933    -123.03860930     37.806527221    0.450D-04 0.843D-13
          Norm of current diis error: 0.67517E-02
          max. resid. norm for Fia-block=  1.403D-03 for orbital      1a         
          max. resid. fock norm         =  2.308D-03 for orbital    115a         
          Delta Eig. =     0.3217594919 eV 
 
                                              current damping :  0.400
 ITERATION  ENERGY          1e-ENERGY        2e-ENERGY     RMS[dD(SAO)]   TOL
   7  -76.064415140476    -123.03881486     37.806731525    0.224D-04 0.782D-13
          Norm of current diis error: 0.26276E-02
          max. resid. norm for Fia-block=  4.998D-04 for orbital      1a         
          max. resid. fock norm         =  8.185D-04 for orbital    115a         
          Delta Eig. =     0.1264520456 eV 
 
                                              current damping :  0.250
 ITERATION  ENERGY          1e-ENERGY        2e-ENERGY     RMS[dD(SAO)]   TOL
   8  -76.064415372183    -123.03892211     37.806838543    0.101D-04 0.719D-13
          Norm of current diis error: 0.92443E-03
          max. resid. norm for Fia-block=  1.560D-04 for orbital      3a         
          max. resid. fock norm         =  2.356D-04 for orbital    115a         
          Delta Eig. =     0.0406844181 eV 
 
                                              current damping :  0.100
 ITERATION  ENERGY          1e-ENERGY        2e-ENERGY     RMS[dD(SAO)]   TOL
   9  -76.064415409960    -123.03894555     37.806861951    0.403D-05 0.661D-13
          Norm of current diis error: 0.29954E-03
          max. resid. norm for Fia-block=  5.291D-05 for orbital      3a         
          max. resid. fock norm         =  5.291D-05 for orbital      3a         
          Delta Eig. =     0.0092418749 eV 
 
                                              current damping :  0.050
 ITERATION  ENERGY          1e-ENERGY        2e-ENERGY     RMS[dD(SAO)]   TOL
  10  -76.064415415454    -123.03895843     37.806874820    0.138D-05 0.616D-13
          Norm of current diis error: 0.86955E-04
          max. resid. norm for Fia-block=  1.689D-05 for orbital      3a         
          max. resid. fock norm         =  1.689D-05 for orbital      3a         
 mo-orthogonalization: Cholesky decomposition
          Delta Eig. =     0.0009418223 eV 
 
                                              current damping :  0.100
 ITERATION  ENERGY          1e-ENERGY        2e-ENERGY     RMS[dD(SAO)]   TOL
  11  -76.064415416002    -123.03895459     37.806870977    0.344D-06 0.586D-13
          Norm of current diis error: 0.18842E-04
          max. resid. norm for Fia-block=  3.670D-06 for orbital      3a         
          max. resid. fock norm         =  3.670D-06 for orbital      3a         
          Delta Eig. =     0.0000590698 eV 

 DENSITY CONVERGED !

 
                                              current damping :  0.150
 ITERATION  ENERGY          1e-ENERGY        2e-ENERGY     RMS[dD(SAO)]   TOL
  12  -76.064415416028    -123.03895724     37.806873630    0.607D-07 0.679D-13
          Norm of current diis error: 0.39603E-05
          max. resid. norm for Fia-block=  9.077D-07 for orbital      3a         
          max. resid. fock norm         =  9.078D-07 for orbital      3a         
          Delta Eig. =     0.0000196975 eV 

 ENERGY & DENSITY CONVERGED !

 
                                              current damping :  0.200
 ITERATION  ENERGY          1e-ENERGY        2e-ENERGY     RMS[dD(SAO)]   TOL
  13  -76.064415416029    -123.03895528     37.806871670    0.130D-07 0.681D-13
          max. resid. norm for Fia-block=  1.408D-07 for orbital      5a         
          max. resid. fock norm         =  1.408D-07 for orbital      5a         

 convergence criteria satisfied after    13 iterations


                  ------------------------------------------ 
                 |  total energy      =    -76.06441541603  |
                  ------------------------------------------ 
                 :  kinetic energy    =     75.99680386298  :
                 :  potential energy  =   -152.06121927901  :
                 :  virial theorem    =      1.99911112768  :
                 :  wavefunction norm =      1.00000000000  :
                  .......................................... 


 orbitals $scfmo  will be written to file mos

    irrep                  1a          2a          3a          4a          5a   
 eigenvalues H        -20.56114    -1.34908    -0.70932    -0.58466    -0.50840
            eV        -559.5014    -36.7106    -19.3019    -15.9095    -13.8345
 occupation              2.0000      2.0000      2.0000      2.0000      2.0000 

    irrep                  6a          7a          8a          9a         10a   
 eigenvalues H          0.11650     0.17122     0.44666     0.46279     0.50370
            eV           3.1702      4.6591     12.1544     12.5931     13.7064
 
 
 
 
 ==============================================================================
                           electrostatic moments
 ==============================================================================

 reference point for electrostatic moments:    0.00000   0.00000   0.00000

 
              nuc           elec       ->  total
 ------------------------------------------------------------------------------
                          charge      
 ------------------------------------------------------------------------------
          10.000000     -10.000000       0.000000
 
 ------------------------------------------------------------------------------
                       dipole moment  
 ------------------------------------------------------------------------------
   x     -49.862705      50.566176       0.703471
   y      -6.171386       5.787478      -0.383908
   z       0.000000      -0.000000      -0.000000
 
   | dipole moment | =     0.8014 a.u. =     2.0370 debye 
 
 ------------------------------------------------------------------------------
                     quadrupole moment
 ------------------------------------------------------------------------------
  xx     251.142149    -262.372577     -11.230429
  yy       7.371560     -10.382982      -3.011422
  zz       0.000000      -5.515996      -5.515996
  xy      31.608965     -29.552969       2.055996
  xz       0.000000       0.000000       0.000000
  yz       0.000000       0.000000       0.000000
 
     1/3  trace=      -6.585949
     anisotropy=       8.119188
 
 ==============================================================================
 


    ------------------------------------------------------------------------
         total  cpu-time :  2 minutes and  3 seconds
         total wall-time :   7.21 seconds
    ------------------------------------------------------------------------

   ****  dscf : all done  ****


    2019-04-01 23:39:19.994 

