 operating system is UNIX !
 hostname is         c-9-371.local

 ridft (c-9-371.local) : TURBOMOLE V7.0( ) 6 Jul 2015 at 18:30:05
 Copyright (C) 2015 TURBOMOLE GmbH, Karlsruhe


    2015-09-22 14:50:56.949 



                                  r i d f t

                        DFT program with RI approximation 
                                for coulomb part 




                                                 
                                 References:     
                                                 
          TURBOMOLE:                             
              R. Ahlrichs, M. Baer, M. Haeser, H. Horn, and
              C. Koelmel
              Electronic structure calculations on workstation
              computers: the program system TURBOMOLE
              Chem. Phys. Lett. 162: 165 (1989)
          Density Functional:                              
              O. Treutler and R. Ahlrichs                      
              Efficient Molecular Numerical Integration Schemes
              J. Chem. Phys. 102: 346 (1995)                   
          Parallel Version:                                
              Performance of parallel TURBOMOLE for Density    
              Functional Calculations                          
              M. v. Arnim and R. Ahlrichs                      
              J. Comp. Chem. 19: 1746 (1998)                   
          RI-J Method:                                     
              Auxiliary Basis Sets to approximate Coulomb      
              Potentials                                       
              Chem. Phys. Lett. 240: 283 (1995)                
              K. Eichkorn, O. Treutler, H. Oehm, M. Haeser     
              and R. Ahlrichs                                  
              Chem. Phys. Lett. 242: 652 (1995)                
                                                           
              Auxiliary Basis Sets for Main Row Atoms and their
              Use to approximate Coulomb Potentials            
              K. Eichkorn, F. Weigend, O. Treutler and         
              R. Ahlrichs                                      
              Theo. Chem. Acc. 97: 119 (1997)                   
                                                           
              Accurate Coulomb-fitting basis sets for H to Rn 
              F. Weigend                                        
              Phys. Chem. Chem. Phys. 8: 1057 (2006)            
                                                           
          Multipole accelerated RI-J (MARI-J):             
              Fast evaluation of the Coulomb potential for     
              electron densities using multipole accelerated   
              resolution of identity approximation             
              M. Sierka, A. Hogekamp and R. Ahlrichs           
              J. Chem. Phys. 118: 9136 (2003)                  
          RI-JK Method:                                     
              A fully direct RI-HF algorithm: Implementation,
              optimised auxiliary basis sets, demonstration of
              accuracy and efficiency                         
              F. Weigend                                      
              Phys. Chem. Chem. Phys. 4: 4285 (2002)           
          Two-component HF and DFT with spin-orbit coupling:  
              Self-consistent treatment of spin-orbit         
              interactions with efficient Hartree-Fock and    
              density functional methods                      
              M. K. Armbruster, F. Weigend, C. van Wüllen and 
              W. Klopper                                      
              Phys. Chem. Chem. Phys. 10: 1748 (2008)         
          Relativistic all-electron 2c calculations           
              An efficient implementation of two-component    
              relativistic exact-decoupling methods for large 
              molecules                                       
              D. Peng, N. Middendorf, F. Weigend, M. Reiher   
              J. Chem. Phys. 138, 184105 (2013)               
                                         


 


              +--------------------------------------------------+
              |      general information about current run       |
              +--------------------------------------------------+

 

 DENSITY CONVERGENCE CHECK SWITCHED ON !
 SCF CONVERGENCE IF RMS(delta[D]) <     0.1000000000E-06

 PBE functional
 exchange:    LDA + PBE
 correlation: LDA (PW) + PBE
 A DFT calculation using the RI-J approximation will be carried out.
 Allocatable memory for RI due to $ricore (MB):        5000


              +--------------------------------------------------+
              | Atomic coordinate, charge and isotop information |
              +--------------------------------------------------+

                    atomic coordinates            atom    charge  isotop
         -0.14463964    5.74559892   -3.37884922    c      0.000     0
         -0.61612631   -5.99222708    3.25881382    c      0.000     0
        -11.09118062   -1.05809546    0.43667791    c      0.000     0
        -10.77578533    0.54255927   -2.00218374    c      0.000     0
         -0.76216434    7.83531477   -5.39467678    c      0.000     0
         -1.28688460   -8.09815678    5.23771613    c      0.000     0
        -13.51191980   -2.65060546    0.28045426    c      0.000     0
        -13.09960045    2.23983569   -2.38974767    c      0.000     0
         -6.78184915   -0.24829112    4.07275666    c      0.000     0
         -5.88636462   -0.31161584   -4.81770560    c      0.000     0
        -15.83543256   -0.97237748   -0.14101136    c      0.000     0
        -15.52803081    0.66406866   -2.51222082    c      0.000     0
          8.53611971    2.91097193   -6.97325951    c      0.000     0
          7.54280406   -2.63913483    7.57060194    c      0.000     0
          6.36234884   -9.42837280   -2.41078032    c      0.000     0
          6.11112865    9.62834362    2.81748718    c      0.000     0
          3.76622418    6.50780106   -1.48398303    c      0.000     0
          3.48764076   -6.53765873    1.72462076    c      0.000     0
         -0.38104438    6.86614983   -0.80205646    c      0.000     0
         -0.55652435   -7.12989890    0.67776917    c      0.000     0
          2.13658106   -5.25547955    3.55141901    c      0.000     0
          2.65825885    5.17286073   -3.43217729    c      0.000     0
          7.88338941    5.44380966   -2.98973571    c      0.000     0
          7.39277871   -5.25670788    3.58545298    c      0.000     0
         -4.84193189   -4.15036771    1.94781631    c      0.000     0
         -4.35666911    3.64773835   -2.47476645    c      0.000     0
          4.19443612    3.97294132   -5.24880882    c      0.000     0
          3.43792206   -3.95090712    5.47245791    c      0.000     0
         -2.66432487   -3.98539462    3.56496835    c      0.000     0
         -2.03725705    3.62988044   -3.89173979    c      0.000     0
          6.13303058   -6.61593119    1.58281571    c      0.000     0
          6.37918630    6.71963936   -1.10395911    c      0.000     0
         -8.50902104    2.09323074   -1.84832223    n      0.000     0
         -8.91366809   -2.70062651    0.77537353    n      0.000     0
          6.83508273    4.12085019   -5.04214837    c      0.000     0
          6.09563290   -3.95625504    5.50668085    c      0.000     0
         -6.29875956    1.83577445   -3.01965008    c      0.000     0
         -6.88192904   -2.39721209    2.22706114    c      0.000     0
         -4.89038446   -6.01889112   -0.12791556    c      0.000     0
         -4.71206991    5.51081935   -0.42526397    c      0.000     0
         -2.58123362   -7.35545662   -0.82363714    c      0.000     0
         -2.55978523    6.97511144    0.48887215    c      0.000     0
          7.61570970    8.13283326    0.91296449    c      0.000     0
          7.60593981   -7.90298587   -0.34729387    c      0.000     0
          1.87385243   -7.76938223    0.01364382    o      0.000     0
          1.93252843    7.63967143    0.07672288    o      0.000     0
          9.91972049   -5.18964150    3.63891333    o      0.000     0
         10.40354707    5.48075381   -2.80085759    o      0.000     0
          2.17938335   -2.68046314    7.27518105    o      0.000     0
          3.17545800    2.66610122   -7.17589484    o      0.000     0
          9.97344541    8.14778099    1.07901472    o      0.000     0
          9.97227378   -7.76664213   -0.32784859    o      0.000     0
         -6.81289735   -6.34781685   -1.49607728    o      0.000     0
         -6.77519731    5.72825124    0.75080709    o      0.000     0
         -2.38846265   -2.45352592    5.35126977    o      0.000     0
         -1.52060593    2.16564505   -5.67832467    o      0.000     0
         10.78015059    6.50379484   -1.20995385    h      0.000     0
         10.48542891   -6.18724682    2.09054733    h      0.000     0
         -8.48685455    3.63105207   -0.58957566    h      0.000     0
         -8.69750232   -4.25651363   -0.44508720    h      0.000     0
          1.30644326    2.45870377   -6.82650337    h      0.000     0
          0.34653798   -2.57053777    6.74031297    h      0.000     0
        -11.24564683    0.23948499    2.03644447    h      0.000     0
        -10.61740738   -0.75401962   -3.60140227    h      0.000     0
         -2.53644711   -8.25935042   -2.66003520    h      0.000     0
         -2.75758286    7.90071819    2.30533360    h      0.000     0
        -13.21105650    3.59333314   -0.81968761    h      0.000     0
        -13.32364638   -4.00499108   -1.28161226    h      0.000     0
        -13.69913496   -3.75367640    2.02113769    h      0.000     0
        -12.84161504    3.34026102   -4.12308007    h      0.000     0
        -16.10519097    0.25360125    1.51255569    h      0.000     0
        -15.46840995   -0.55731803   -4.18984409    h      0.000     0
         -6.53108249   -0.97472074    5.98793740    h      0.000     0
         -4.15730301   -1.31740368   -4.31547308    h      0.000     0
        -17.52813585   -2.15307837   -0.29341778    h      0.000     0
        -17.15895895    1.91724055   -2.74097217    h      0.000     0
         -5.13374340    0.92995313    3.69294060    h      0.000     0
         -7.45774749   -1.63918624   -4.80918293    h      0.000     0
          6.34564366   -1.24542401    8.50682895    h      0.000     0
          7.53586877    1.41744578   -7.98492439    h      0.000     0
         -8.46449909    0.93084130    3.98575367    h      0.000     0
         -5.58969652    0.41273508   -6.72991947    h      0.000     0
          9.22791065   -1.71643825    6.81624216    h      0.000     0
         10.23267804    2.14595410   -6.07911669    h      0.000     0
          7.83231011  -10.14096963   -3.66603090    h      0.000     0
          7.42458280   10.49763654    4.14590796    h      0.000     0
          0.04990767   -9.66165949    5.05760633    h      0.000     0
          0.46156561    9.46936096   -5.08544200    h      0.000     0
          4.78062917    8.41483709    3.82909537    h      0.000     0
          5.01368909   -8.28557982   -3.48027082    h      0.000     0
         -1.14785745   -7.29793335    7.13624838    h      0.000     0
         -0.41141228    7.06561042   -7.27833689    h      0.000     0
         -2.73974384    8.41368435   -5.23573192    h      0.000     0
         -3.20641171   -8.79212091    4.91485642    h      0.000     0
          5.29350084  -11.00364850   -1.59885949    h      0.000     0
          4.98761087   11.08602167    1.87184932    h      0.000     0
          8.76190419    4.19821558   -8.52457348    h      0.000     0
          8.17506863   -4.00000220    9.00087895    h      0.000     0
          6.86066962   -0.25076666   -0.09694295    c      6.000     0
          4.86940850    1.94114558    3.23026006    c      6.000     0
          4.20879804   -0.45650114   -0.46137664    c      6.000     0
          2.95224355    0.97557112    1.62093149    c      6.000     0
          3.45118794   -1.86943047   -2.58206510    c      6.000     0
          7.77932219   -2.63093341   -3.75762593    c      6.000     0
          1.82375579    3.82709226    5.89384794    c      6.000     0
          5.22499827   -2.91924893   -4.23200388    c      6.000     0
          7.39593455    1.24124771    2.23475233    c      6.000     0
          4.35997613    3.34619476    5.36978909    c      6.000     0
          8.66123848   -1.29533168   -1.67119820    c      6.000     0
         -0.10911279    2.94814284    4.35071648    c      6.000     0
          0.43881331    1.52094608    2.20109631    c      6.000     0
          0.80439972   -2.45021890   -3.21332811    n      7.000     0
          9.60630941   -3.78408209   -5.53232443    n      7.000     0
          1.16443035    5.34758481    8.13957958    n      7.000     0
         -0.83206531   -1.89560318   -1.63960198    o      8.000     0
          0.35010956   -3.51392685   -5.23051627    o      8.000     0
         11.85262687   -3.28175509   -5.20935134    o      8.000     0
          2.92111976    6.11630650    9.46543033    o      8.000     0
          8.74843044   -5.15564532   -7.21117603    o      8.000     0
         -1.09723168    5.76691503    8.53587404    o      8.000     0
          9.46318156    1.76254756    3.09975557    o      8.000     0
         -1.08874681    0.86027892    1.03088340    h      1.000     0
          4.58712121   -3.95986442   -5.87111453    h      1.000     0
         -2.04330418    3.38253419    4.85308127    h      1.000     0
         10.66179705   -1.07774861   -1.29376320    h      1.000     0
          5.85758409    4.05157283    6.57549105    h      1.000     0
 
       center of nuclear mass  :    1.05148406    0.00013320    0.07352086
       center of nuclear charge:    4.36095749    0.21068273    0.55085292

              +--------------------------------------------------+
              |               basis set information              |
              +--------------------------------------------------+

              we will work with the 1s 3p 5d 7f 9g ... basis set
              ...i.e. with spherical basis functions...

   type   atoms  prim   cont   basis
   ---------------------------------------------------------------------------
    c       55     46     31   def2-TZVP   [5s3p2d1f|11s6p2d1f]
    n        5     46     31   def2-TZVP   [5s3p2d1f|11s6p2d1f]
    o       19     46     31   def2-TZVP   [5s3p2d1f|11s6p2d1f]
    h       47      8      6   def2-TZVP   [3s1p|5s1p]
   ---------------------------------------------------------------------------
   total:  126   4010   2731
   ---------------------------------------------------------------------------

   total number of primitive shells          :   66
   total number of contracted shells         : 1057
   total number of cartesian basis functions : 3126
   total number of SCF-basis functions       : 2731


 integral neglect threshold       :  0.11E-13
 integral storage threshold THIZE :  0.10E-04
 integral storage threshold THIME :         5

 RI-J AUXILIARY BASIS SET information:

              we will work with the 1s 3p 5d 7f 9g ... basis set
              ...i.e. with spherical basis functions...

   type   atoms  prim   cont   basis
   ---------------------------------------------------------------------------
    c       55     70     49   def2-TZVP   [6s4p3d1f1g|12s5p4d2f1g]
    n        5     70     49   def2-TZVP   [6s4p3d1f1g|12s5p4d2f1g]
    o       19     70     49   def2-TZVP   [6s4p3d1f1g|12s5p4d2f1g]
    h       47     16     11   def2-TZVP   [3s1p1d|5s2p1d]
   ---------------------------------------------------------------------------
   total:  126   6282   4388
   ---------------------------------------------------------------------------

   total number of primitive shells          :   80
   total number of contracted shells         : 1420
   total number of cartesian basis functions : 5383
   total number of SCF-basis functions       : 4388


 symmetry group of the molecule :   c1 

 the group has the following generators :
   c1(z)

    1 symmetry operations found

 there are 1 real representations :   a   

 maximum number of shells which are related by symmetry :  1


    mo occupation :
   irrep   mo's   occupied
    a     2731       80
 
 number of basis functions   :         2731
 number of occupied orbitals :           80
 
  
           ------------------
           density functional
           ------------------
 Dummy atoms with grid-point found.
 DFT quadrature threshold dgrenze tightened by factor 1/10.

 PBE functional
 exchange:    LDA + PBE
 correlation: LDA (PW) + PBE
 Dummy atoms with grid-point found.
 DFT quadrature threshold dgrenze tightened by factor 1/10.

 Dummy atoms with grid-point found.
 DFT quadrature threshold dgrenze tightened by factor 1/10.

 iterations will be done with small grid
  
 spherical integration : Lebedev's spherical grid
 spherical gridsize    :           5
    i.e. gridpoints    :         590
 value for diffuse not defined
 radial integration    : Chebyshev 2nd kind (scaling 3)
 radial gridsize       :           8
 integration cells     :         126
 partition function    : becke
 partition sharpness   :           3
  
 found dummy atom(s) with basis: included in dft

 biggest AO integral is expected to be     7.998976882
  
           ------------------------
               RI-J - INFORMATION
           ------------------------
 Contributions to RI integral batches: 
  neglected integral batches:      314144
  direct contribution:             201101
  memory contribution:       43908
 Memory core needed for (P|Q) and Cholesky    147 MByte
 Memory core minimum needed except of (P|Q)     3 MByte
 Total minimum memory core needed (sum)       150 MByte
  
 ****************************************
 Memory allocated for RI-J  4456 MByte
 ****************************************
                                            

          ------------------------
          nuclear repulsion energy  :   1796.18834783    
          ------------------------

 
          -----------------
          -S,T+V- integrals
          -----------------

 1e-integrals will be neglected if expon. factor < 0.106909E-14
 
   Difference densities algorithm switched on.
   The maximal number of linear combinations of
   difference densities is          20 .

 automatic virtual orbital shift switched on 
      shift if e(lumo)-e(homo) < 0.10000000    


 DIIS switched on: error vector is FDS-SDF
 Max. Iterations for DIIS is     :   4
 DIIS matrix (see manual) 
    Scaling factor of diagonals  :  1.200
    threshold for scaling factor :  0.000

 scf convergence criterion : increment of total energy < .1000000D-08
                  and increment of one-electron energy < .1000000D-05


 <geterg> : there is no data group $energy 

  MOs are in ASCII format !


 reading orbital data $scfmo  from file mos . 

 orbital characterization : expanded
 
 mo provided and orthogonalized by Cholesky decomposition

 DSCF restart information will be dumped onto file mos


 Starting SCF iterations

          Overall gridpoints after grid construction =        826107

 ITERATION  ENERGY          1e-ENERGY        2e-ENERGY     RMS[dD(SAO)]   TOL
   1  -1182.1371095121    -5143.1389942     2164.8135368    0.000D+00 0.107D-13
                            Exc = -150.605997942     Coul =  2315.41953476    
                              N = 159.99911211    
                            current damping = 0.700
 
          max. resid. norm for Fia-block=  4.710D-01 for orbital     51a         
          max. resid. fock norm         =  1.913D+01 for orbital   1971a         

 ITERATION  ENERGY          1e-ENERGY        2e-ENERGY     RMS[dD(SAO)]   TOL
   2  -1187.1419939198    -5173.7815505     2190.4512087    0.149D-01 0.105D-13
                            Exc = -150.967460191     Coul =  2341.41866892    
                              N = 159.99929111    
                            current damping = 0.650
 
          Norm of current diis error:  3.9187    
          max. resid. norm for Fia-block=  1.623D-01 for orbital      1a         
          max. resid. fock norm         =  2.853D-01 for orbital   1494a         

 ITERATION  ENERGY          1e-ENERGY        2e-ENERGY     RMS[dD(SAO)]   TOL
   3  -1187.8090338708    -5184.9014364     2200.9040547    0.572D-02 0.684D-14
                            Exc = -151.777110861     Coul =  2352.68116558    
                              N = 159.99938468    
                            current damping = 0.550
 
          Norm of current diis error:  1.9028    
          max. resid. norm for Fia-block=  6.749D-02 for orbital     62a         
          max. resid. fock norm         =  1.364D-01 for orbital   2259a         

 ITERATION  ENERGY          1e-ENERGY        2e-ENERGY     RMS[dD(SAO)]   TOL
   4  -1188.0660504002    -5187.3203492     2203.0659510    0.196D-02 0.573D-14
                            Exc = -151.638791710     Coul =  2354.70474272    
                              N = 159.99941149    
                            current damping = 0.450
 
          Norm of current diis error: 0.88478    
          max. resid. norm for Fia-block=  5.711D-02 for orbital     80a         
          max. resid. fock norm         =  6.617D-02 for orbital     27a         
          irrep a   : virtual orbitals shifted by    0.00363

 ITERATION  ENERGY          1e-ENERGY        2e-ENERGY     RMS[dD(SAO)]   TOL
   5  -1188.1247066145    -5188.4780047     2204.1649503    0.105D-02 0.491D-14
                            Exc = -151.848469091     Coul =  2356.01341935    
                              N = 159.99942315    
                            current damping = 0.350
 
          Norm of current diis error: 0.64228    
          max. resid. norm for Fia-block=  1.983D-02 for orbital     27a         
          max. resid. fock norm         =  6.825D-02 for orbital   2673a         
          mo-orthogonalization: Cholesky decomposition

 ITERATION  ENERGY          1e-ENERGY        2e-ENERGY     RMS[dD(SAO)]   TOL
   6  -1188.1380303020    -5188.6895101     2204.3631320    0.846D-03 0.442D-14
                            Exc = -151.830714961     Coul =  2356.19384698    
                              N = 159.99944425    
                            current damping = 0.200
 
          Norm of current diis error: 0.49065    
          max. resid. norm for Fia-block=  1.174D-02 for orbital     71a         
          max. resid. fock norm         =  2.636D-02 for orbital   2669a         
          irrep a   : virtual orbitals shifted by    0.01310

 ITERATION  ENERGY          1e-ENERGY        2e-ENERGY     RMS[dD(SAO)]   TOL
   7  -1188.1463988932    -5189.2925522     2204.9578055    0.296D-03 0.423D-14
                            Exc = -151.821359076     Coul =  2356.77916455    
                              N = 159.99944117    
                            current damping = 0.100
 
          Norm of current diis error: 0.31219    
          max. resid. norm for Fia-block=  9.573D-03 for orbital     69a         
          max. resid. fock norm         =  2.087D-02 for orbital   2672a         
          irrep a   : virtual orbitals shifted by    0.01059

 ITERATION  ENERGY          1e-ENERGY        2e-ENERGY     RMS[dD(SAO)]   TOL
   8  -1188.1464031500    -5188.9706948     2204.6359438    0.226D-03 0.427D-14
                            Exc = -151.817771904     Coul =  2356.45371573    
                              N = 159.99943568    
                            current damping = 0.150
 
          Norm of current diis error: 0.31393    
          max. resid. norm for Fia-block=  5.278D-03 for orbital     72a         
          max. resid. fock norm         =  1.326D-02 for orbital   2669a         
          irrep a   : virtual orbitals shifted by    0.01057

 ITERATION  ENERGY          1e-ENERGY        2e-ENERGY     RMS[dD(SAO)]   TOL
   9  -1188.1520940020    -5188.8906814     2204.5502396    0.131D-03 0.419D-14
                            Exc = -151.825293330     Coul =  2356.37553293    
                              N = 159.99943940    
                            current damping = 0.050
 
          Norm of current diis error: 0.55269E-01
          max. resid. norm for Fia-block=  1.495D-03 for orbital     46a         
          max. resid. fock norm         =  2.411D-03 for orbital   2670a         
          irrep a   : virtual orbitals shifted by    0.02083

 ITERATION  ENERGY          1e-ENERGY        2e-ENERGY     RMS[dD(SAO)]   TOL
  10  -1188.1521342329    -5188.9871327     2204.6466506    0.314D-04 0.416D-14
                            Exc = -151.822180336     Coul =  2356.46883093    
                              N = 159.99943954    
                            current damping = 0.100
 
          Norm of current diis error: 0.46613E-01
          max. resid. norm for Fia-block=  7.353D-04 for orbital     71a         
          max. resid. fock norm         =  1.913D-03 for orbital   2660a         
          irrep a   : virtual orbitals shifted by    0.01625
          mo-orthogonalization: Cholesky decomposition

 ITERATION  ENERGY          1e-ENERGY        2e-ENERGY     RMS[dD(SAO)]   TOL
  11  -1188.1522156847    -5188.9906878     2204.6501243    0.200D-04 0.416D-14
                            Exc = -151.824599436     Coul =  2356.47472376    
                              N = 159.99943945    
                            current damping = 0.050
 
          Norm of current diis error: 0.20460E-01
          max. resid. norm for Fia-block=  7.361D-04 for orbital     72a         
          max. resid. fock norm         =  1.674D-03 for orbital   2671a         
          irrep a   : virtual orbitals shifted by    0.01984

 ITERATION  ENERGY          1e-ENERGY        2e-ENERGY     RMS[dD(SAO)]   TOL
  12  -1188.1522148125    -5188.9492030     2204.6086403    0.119D-04 0.413D-14
                            Exc = -151.824724207     Coul =  2356.43336454    
                              N = 159.99943937    
                            current damping = 0.100
 
          Norm of current diis error: 0.19062E-01
          max. resid. norm for Fia-block=  5.213D-04 for orbital     72a         
          max. resid. fock norm         =  1.259D-03 for orbital   2671a         
          irrep a   : virtual orbitals shifted by    0.01628

 ITERATION  ENERGY          1e-ENERGY        2e-ENERGY     RMS[dD(SAO)]   TOL
  13  -1188.1522338670    -5188.9482109     2204.6076292    0.810D-05 0.412D-14
                            Exc = -151.823810101     Coul =  2356.43143934    
                              N = 159.99943943    
                            current damping = 0.050
 
          Norm of current diis error: 0.76328E-02
          max. resid. norm for Fia-block=  2.325D-04 for orbital     72a         
          max. resid. fock norm         =  5.642D-04 for orbital   2671a         
          irrep a   : virtual orbitals shifted by    0.02011

 ITERATION  ENERGY          1e-ENERGY        2e-ENERGY     RMS[dD(SAO)]   TOL
  14  -1188.1522339440    -5188.9669212     2204.6263394    0.363D-05 0.411D-14
                            Exc = -151.823696463     Coul =  2356.45003586    
                              N = 159.99943944    
                            current damping = 0.100
 
          Norm of current diis error: 0.66930E-02
          max. resid. norm for Fia-block=  1.990D-04 for orbital     72a         
          max. resid. fock norm         =  4.688D-04 for orbital   2671a         
          irrep a   : virtual orbitals shifted by    0.01620

 ITERATION  ENERGY          1e-ENERGY        2e-ENERGY     RMS[dD(SAO)]   TOL
  15  -1188.1522358067    -5188.9620229     2204.6214392    0.371D-05 0.411D-14
                            Exc = -151.824232765     Coul =  2356.44567200    
                              N = 159.99943940    
                            current damping = 0.150
 
          Norm of current diis error: 0.34831E-02
          max. resid. norm for Fia-block=  1.134D-04 for orbital     69a         
          max. resid. fock norm         =  3.027D-04 for orbital   2672a         
          irrep a   : virtual orbitals shifted by    0.01244
          mo-orthogonalization: Cholesky decomposition

 ITERATION  ENERGY          1e-ENERGY        2e-ENERGY     RMS[dD(SAO)]   TOL
  16  -1188.1522361588    -5188.9612351     2204.6206511    0.181D-05 0.409D-14
                            Exc = -151.824190516     Coul =  2356.44484166    
                              N = 159.99943944    
                            current damping = 0.050
 
          Norm of current diis error: 0.24452E-02
          max. resid. norm for Fia-block=  6.948D-05 for orbital     69a         
          max. resid. fock norm         =  1.820D-04 for orbital   2672a         
          irrep a   : virtual orbitals shifted by    0.02009

 ITERATION  ENERGY          1e-ENERGY        2e-ENERGY     RMS[dD(SAO)]   TOL
  17  -1188.1522364269    -5188.9618958     2204.6213116    0.118D-05 0.409D-14
                            Exc = -151.823955763     Coul =  2356.44526734    
                              N = 159.99943944    
                            current damping = 0.100
 
          Norm of current diis error: 0.13307E-02
          max. resid. norm for Fia-block=  3.686D-05 for orbital     80a         
          max. resid. fock norm         =  1.017D-04 for orbital   2674a         
          irrep a   : virtual orbitals shifted by    0.01623

 ITERATION  ENERGY          1e-ENERGY        2e-ENERGY     RMS[dD(SAO)]   TOL
  18  -1188.1522365029    -5188.9609369     2204.6203525    0.849D-06 0.408D-14
                            Exc = -151.824075864     Coul =  2356.44442840    
                              N = 159.99943941    
                            current damping = 0.150
 
          Norm of current diis error: 0.69431E-03
          max. resid. norm for Fia-block=  2.336D-05 for orbital     80a         
          max. resid. fock norm         =  5.608D-05 for orbital   2674a         
          irrep a   : virtual orbitals shifted by    0.01245

 ITERATION  ENERGY          1e-ENERGY        2e-ENERGY     RMS[dD(SAO)]   TOL
  19  -1188.1522365164    -5188.9614593     2204.6208750    0.449D-06 0.408D-14
                            Exc = -151.824033962     Coul =  2356.44490895    
                              N = 159.99943943    
                            current damping = 0.200
 
          Norm of current diis error: 0.41447E-03
          max. resid. norm for Fia-block=  1.518D-05 for orbital     72a         
          max. resid. fock norm         =  3.454D-05 for orbital   2671a         
          irrep a   : virtual orbitals shifted by    0.00864

 ITERATION  ENERGY          1e-ENERGY        2e-ENERGY     RMS[dD(SAO)]   TOL
  20  -1188.1522365216    -5188.9613809     2204.6207966    0.217D-06 0.408D-14
                            Exc = -151.824069365     Coul =  2356.44486594    
                              N = 159.99943943    
                            current damping = 0.250
 
          Norm of current diis error: 0.25604E-03
          max. resid. norm for Fia-block=  9.471D-06 for orbital     72a         
          max. resid. fock norm         =  2.204D-05 for orbital   2671a         
          irrep a   : virtual orbitals shifted by    0.00483
          mo-orthogonalization: Cholesky decomposition

 ITERATION  ENERGY          1e-ENERGY        2e-ENERGY     RMS[dD(SAO)]   TOL
  21  -1188.1522365253    -5188.9614016     2204.6208173    0.110D-06 0.407D-14
                            Exc = -151.824055752     Coul =  2356.44487304    
                              N = 159.99943943    
                            current damping = 0.300
 
          Norm of current diis error: 0.96893E-04
          max. resid. norm for Fia-block=  3.289D-06 for orbital     72a         
          max. resid. fock norm         =  7.401D-06 for orbital   2671a         
          irrep a   : virtual orbitals shifted by    0.00102

 DENSITY CONVERGED !


 ITERATION  ENERGY          1e-ENERGY        2e-ENERGY     RMS[dD(SAO)]   TOL
  22  -1188.1522365255    -5188.9614476     2204.6208633    0.479D-07 0.107D-13
                            Exc = -151.824050482     Coul =  2356.44491374    
                              N = 159.99943943    
                            current damping = 0.150
 
          Norm of current diis error: 0.79547E-04
          max. resid. norm for Fia-block=  1.926D-06 for orbital     68a         
          max. resid. fock norm         =  2.652D-06 for orbital   2672a         
          irrep a   : virtual orbitals shifted by    0.01244

 DENSITY CONVERGED !


 ITERATION  ENERGY          1e-ENERGY        2e-ENERGY     RMS[dD(SAO)]   TOL
  23  -1188.1522365257    -5188.9613266     2204.6207423    0.322D-07 0.676D-14
                            Exc = -151.824054696     Coul =  2356.44479699    
                              N = 159.99943943    
                            current damping = 0.200
 
          Norm of current diis error: 0.34116E-04
          max. resid. norm for Fia-block=  8.734D-07 for orbital     68a         
          max. resid. fock norm         =  1.620D-06 for orbital   2672a         
          irrep a   : virtual orbitals shifted by    0.00864

 DENSITY CONVERGED !


 ITERATION  ENERGY          1e-ENERGY        2e-ENERGY     RMS[dD(SAO)]   TOL
  24  -1188.1522365257    -5188.9614003     2204.6208159    0.199D-07 0.638D-14
                            Exc = -151.824052998     Coul =  2356.44486890    
                              N = 159.99943943    
                            current damping = 0.250
 
          Norm of current diis error: 0.20022E-04
          max. resid. norm for Fia-block=  4.300D-07 for orbital     80a         
          max. resid. fock norm         =  7.109D-07 for orbital   2656a         
          irrep a   : virtual orbitals shifted by    0.00483

 ENERGY & DENSITY CONVERGED !

          Overall gridpoints after grid construction =       1927872

 ITERATION  ENERGY          1e-ENERGY        2e-ENERGY     RMS[dD(SAO)]   TOL
  25  -1188.1523040375    -5188.9613978     2204.6207460    0.101D-07 0.615D-14
                            Exc = -151.824122055     Coul =  2356.44486802    
                              N = 160.00003042    
                            current damping = 0.300
 
          Norm of current diis error: 0.88285E-05
          max. resid. norm for Fia-block=  4.915D-07 for orbital     72a         
          max. resid. fock norm         =  1.048D-06 for orbital   2671a         

 End of SCF iterations

   convergence criteria satisfied after   25 iterations


                  ------------------------------------------ 
                 |  total energy      =  -1188.15230403748  |
                  ------------------------------------------ 
                 :  kinetic energy    =   1183.56787464976  :
                 :  potential energy  =  -2371.72017868725  :
                 :  virial theorem    =      1.99614154737  :
                 :  wavefunction norm =      1.00000000000  :
                  .......................................... 


 <geterg> : there is no data group $energy 


 <skperg> : $end is missing 


 orbitals $scfmo  will be written to file mos

    irrep                 76a         77a         78a         79a         80a   
 eigenvalues H         -0.27956    -0.27797    -0.27411    -0.26853    -0.25757
            eV          -7.6073     -7.5640     -7.4590     -7.3072     -7.0089
 occupation              2.0000      2.0000      2.0000      2.0000      2.0000 

    irrep                 81a         82a         83a         84a         85a   
 eigenvalues H         -0.18144    -0.16793    -0.15158    -0.14410    -0.09703
            eV          -4.9372     -4.5695     -4.1247     -3.9211     -2.6404
 
 
 
 
 ==============================================================================
                           electrostatic moments
 ==============================================================================

 reference point for electrostatic moments:    0.00000   0.00000   0.00000

 
              nuc           elec       ->  total
 ------------------------------------------------------------------------------
                          charge      
 ------------------------------------------------------------------------------
         160.000000    -160.000000      -0.000000
 
 ------------------------------------------------------------------------------
                       dipole moment  
 ------------------------------------------------------------------------------
   x     697.753199    -698.128652      -0.375453
   y      33.709237     -33.746580      -0.037343
   z      88.136468     -88.337727      -0.201259
 
   | dipole moment | =     0.4276 a.u. =     1.0869 debye 
 
 ------------------------------------------------------------------------------
                     quadrupole moment
 ------------------------------------------------------------------------------
  xx    5466.537173   -5578.682489    -112.145316
  yy    1788.373226   -1891.127441    -102.754215
  zz    3986.963481   -4102.397615    -115.434134
  xy    -763.557539     765.029299       1.471760
  xz    -992.306250     995.427762       3.121511
  yz    2662.437736   -2678.243979     -15.806243
 
     1/3  trace=    -110.111221
     anisotropy=      30.251222
 
 ==============================================================================
 
 


    ------------------------------------------------------------------------
         total  cpu-time :  2 hours 13 minutes and 46 seconds
         total wall-time :  2 hours 13 minutes and 57 seconds
    ------------------------------------------------------------------------


   ****  ridft : all done  ****


    2015-09-22 17:04:53.776 

