
   OpenMP run-time library returned nthreads = 28
 operating system is UNIX !

 dscf (c-13-33) : TURBOMOLE V7.3 ( 22142 ) 4 Jul 2018 at 18:12:42
 Copyright (C) 2018 TURBOMOLE GmbH, Karlsruhe


    2019-04-01 21:38:42.825 



                             d s c f - program

                   idea & directorship : reinhart ahlrichs
                   program development : marco haeser
                                         michael baer
                           dft version : oliver treutler


                          quantum chemistry group
                          universitaet  karlsruhe
                                  germany




                          References             
                                                 
          TURBOMOLE:                             
              R. Ahlrichs, M. Baer, M. Haeser, H. Horn, and
              C. Koelmel
              Electronic structure calculations on workstation
              computers: the program system TURBOMOLE
              Chem. Phys. Lett. 162: 165 (1989)
          Density Functional:                              
              O. Treutler and R. Ahlrichs                      
              Efficient Molecular Numerical Integration Schemes
              J. Chem. Phys. 102: 346 (1995)                   
          Parallel Version:                                
              Performance of parallel TURBOMOLE for Density    
              Functional Calculations                          
              M. v. Arnim and R. Ahlrichs                      
              J. Comp. Chem. 19: 1746 (1998)                   
                                         




              +--------------------------------------------------+
              | Atomic coordinate, charge and isotop information |
              +--------------------------------------------------+

                    atomic coordinates            atom    charge  isotop
         -1.68837811   -0.08285376   -0.08125341    n      7.000     0
          0.18320566   -0.48388223   -0.13430270    h      1.000     0
         -2.58597454   -1.76385271    0.06394404    h      1.000     0
         -2.22190687    1.43223798    2.16418465    c      6.000     0
         -4.23606037    1.83722200    2.25826930    h      1.000     0
         -1.66445103    0.57494301    3.96315083    h      1.000     0
         -1.25289924    3.23961306    2.00463880    h      1.000     0
          4.31700288   -0.08971758    0.05258204    o      0.000     0
          4.84995500    0.60938427   -1.53453106    h      0.000     0
          5.04627436    1.63292702    1.97903719    c      0.000     0
          4.43554691    0.82103893    3.76117469    h      0.000     0
          7.08917269    1.89575669    2.05281204    h      0.000     0
          4.14208848    3.47276031    1.76138509    h      0.000     0
 
       center of nuclear mass  :    1.43252781    0.70530001    1.01073857
       center of nuclear charge:   -1.92812597    0.63430526    1.14289079

              +--------------------------------------------------+
              |               basis set information              |
              +--------------------------------------------------+

              we will work with the 1s 3p 5d 7f 9g ... basis set
              ...i.e. with spherical basis functions...

   type   atoms  prim   cont   basis
   ---------------------------------------------------------------------------
    n        1     77     55   cc-pVQZ   [5s4p3d2f1g|21s6p3d2f1g]
    h        9     32     30   cc-pVQZ   [4s3p2d1f|6s3p2d1f]
    c        2     77     55   cc-pVQZ   [5s4p3d2f1g|21s6p3d2f1g]
    o        1     77     55   cc-pVQZ   [5s4p3d2f1g|21s6p3d2f1g]
   ---------------------------------------------------------------------------
   total:   13    596    490
   ---------------------------------------------------------------------------

   total number of primitive shells          :  111
   total number of contracted shells         :  150
   total number of cartesian basis functions :  595
   total number of SCF-basis functions       :  490


 integral neglect threshold       :  0.56E-13
 integral storage threshold THIZE :  0.10E-04
 integral storage threshold THIME :         5


 DENSITY CONVERGENCE CHECK SWITCHED ON !
 SCF CONVERGENCE IF RMS(delta[D]) <     0.1000000000E-06


 symmetry group of the molecule :   c1 

 the group has the following generators :
   c1(z)

    1 symmetry operations found

 there are 1 real representations :   a   

 maximum number of shells which are related by symmetry :  1


    mo occupation :
   irrep   mo's   occupied
    a      490        9
 
 number of basis functions   :                    490
 number of occupied orbitals :                      9
 

 automatic virtual orbital shift switched on 
      shift if e(lumo)-e(homo) < 0.10000000    


          ------------------------
          nuclear repulsion energy  :   42.1059322594    
          ------------------------


         -----------------
         -S,T+V- integrals
         -----------------

 1e-integrals will be neglected if expon. factor < 0.561674E-14
 
   Difference densities algorithm switched on.
   The maximal number of linear combinations of
   difference densities is                    20 .

 DIIS switched on: error vector is FDS-SDF
 Max. Iterations for DIIS is     :   5
 DIIS matrix (see manual) 
    Scaling factor of diagonals  :  1.200
    threshold for scaling factor :  0.000

 scf convergence criterion : increment of total energy < .1000000D-08
                  and increment of one-electron energy < .1000000D-05

  MOs are in ASCII format !


 reading orbital data $scfmo  from file mos
 orbital characterization : scfconv=9

 DSCF restart information will be dumped onto file mos

 
                                              current damping :  0.700
 ITERATION  ENERGY          1e-ENERGY        2e-ENERGY     RMS[dD(SAO)]   TOL
   1  -95.241450534310    -211.78108332     74.433700525    0.000D+00 0.560D-13
          max. resid. norm for Fia-block=  1.107D-01 for orbital      1a         
          max. resid. fock norm         =  3.477D-01 for orbital    466a         
          Delta Eig. =    26.0730339398 eV 
 
                                              current damping :  0.650
 ITERATION  ENERGY          1e-ENERGY        2e-ENERGY     RMS[dD(SAO)]   TOL
   2  -95.256878381950    -211.55723867     74.194428028    0.537D-03 0.362D-13
          Norm of current diis error: 0.37833    
          max. resid. norm for Fia-block=  5.187D-02 for orbital      1a         
          max. resid. fock norm         =  1.235D-01 for orbital    470a         
          Delta Eig. =    11.1572435715 eV 
 
                                              current damping :  0.600
 ITERATION  ENERGY          1e-ENERGY        2e-ENERGY     RMS[dD(SAO)]   TOL
   3  -95.259948614877    -211.61879171     74.252910840    0.275D-03 0.269D-13
          Norm of current diis error: 0.16714    
          max. resid. norm for Fia-block=  2.128D-02 for orbital      1a         
          max. resid. fock norm         =  5.057D-02 for orbital    448a         
          Delta Eig. =     4.4876891048 eV 
 
                                              current damping :  0.650
 ITERATION  ENERGY          1e-ENERGY        2e-ENERGY     RMS[dD(SAO)]   TOL
   4  -95.260567644305    -211.59702939     74.230529489    0.117D-03 0.237D-13
          Norm of current diis error: 0.65919E-01
          max. resid. norm for Fia-block=  8.117D-03 for orbital      1a         
          max. resid. fock norm         =  1.955D-02 for orbital    459a         
          Delta Eig. =     1.6180305698 eV 
 
                                              current damping :  0.500
 ITERATION  ENERGY          1e-ENERGY        2e-ENERGY     RMS[dD(SAO)]   TOL
   5  -95.260666660480    -211.59551941     74.228920486    0.472D-04 0.218D-13
          Norm of current diis error: 0.27891E-01
          max. resid. norm for Fia-block=  3.172D-03 for orbital      1a         
          max. resid. fock norm         =  7.194D-03 for orbital    449a         
 mo-orthogonalization: Cholesky decomposition
          Delta Eig. =     0.7015503955 eV 
 
                                              current damping :  0.350
 ITERATION  ENERGY          1e-ENERGY        2e-ENERGY     RMS[dD(SAO)]   TOL
   6  -95.260686140261    -211.59402434     74.227405937    0.221D-04 0.202D-13
          Norm of current diis error: 0.10338E-01
          max. resid. norm for Fia-block=  1.046D-03 for orbital      1a         
          max. resid. fock norm         =  2.409D-03 for orbital    459a         
          Delta Eig. =     0.2598735994 eV 
 
                                              current damping :  0.200
 ITERATION  ENERGY          1e-ENERGY        2e-ENERGY     RMS[dD(SAO)]   TOL
   7  -95.260689198779    -211.59341702     74.226795563    0.937D-05 0.187D-13
          Norm of current diis error: 0.32589E-02
          max. resid. norm for Fia-block=  2.900D-04 for orbital      7a         
          max. resid. fock norm         =  6.684D-04 for orbital    459a         
          Delta Eig. =     0.0757789957 eV 
 
                                              current damping :  0.050
 ITERATION  ENERGY          1e-ENERGY        2e-ENERGY     RMS[dD(SAO)]   TOL
   8  -95.260689568502    -211.59325740     74.226635573    0.350D-05 0.174D-13
          Norm of current diis error: 0.86923E-03
          max. resid. norm for Fia-block=  7.625D-05 for orbital      5a         
          max. resid. fock norm         =  1.187D-04 for orbital    459a         
          Delta Eig. =     0.0146051550 eV 
 
                                              current damping :  0.050
 ITERATION  ENERGY          1e-ENERGY        2e-ENERGY     RMS[dD(SAO)]   TOL
   9  -95.260689604011    -211.59315811     74.226536250    0.116D-05 0.163D-13
          Norm of current diis error: 0.20129E-03
          max. resid. norm for Fia-block=  2.375D-05 for orbital      9a         
          max. resid. fock norm         =  2.405D-05 for orbital      9a         
          Delta Eig. =     0.0007555358 eV 
 
                                              current damping :  0.050
 ITERATION  ENERGY          1e-ENERGY        2e-ENERGY     RMS[dD(SAO)]   TOL
  10  -95.260689606565    -211.59315739     74.226535528    0.315D-06 0.155D-13
          Norm of current diis error: 0.54735E-04
          max. resid. norm for Fia-block=  8.014D-06 for orbital      9a         
          max. resid. fock norm         =  8.151D-06 for orbital      9a         
 mo-orthogonalization: Cholesky decomposition
          Delta Eig. =     0.0000845025 eV 

 DENSITY CONVERGED !

 
                                              current damping :  0.050
 ITERATION  ENERGY          1e-ENERGY        2e-ENERGY     RMS[dD(SAO)]   TOL
  11  -95.260689606783    -211.59314424     74.226522374    0.970D-07 0.160D-13
          Norm of current diis error: 0.14193E-04
          max. resid. norm for Fia-block=  2.399D-06 for orbital      9a         
          max. resid. fock norm         =  2.444D-06 for orbital      9a         
          Delta Eig. =     0.0000467030 eV 

 DENSITY CONVERGED !

 
                                              current damping :  0.100
 ITERATION  ENERGY          1e-ENERGY        2e-ENERGY     RMS[dD(SAO)]   TOL
  12  -95.260689606799    -211.59315010     74.226528238    0.250D-07 0.160D-13
          Norm of current diis error: 0.45809E-05
          max. resid. norm for Fia-block=  6.305D-07 for orbital      9a         
          max. resid. fock norm         =  6.432D-07 for orbital      9a         
          Delta Eig. =     0.0000214823 eV 

 ENERGY & DENSITY CONVERGED !

 
                                              current damping :  0.150
 ITERATION  ENERGY          1e-ENERGY        2e-ENERGY     RMS[dD(SAO)]   TOL
  13  -95.260689606799    -211.59314723     74.226525366    0.531D-08 0.160D-13
          max. resid. norm for Fia-block=  1.867D-07 for orbital      9a         
          max. resid. fock norm         =  1.919D-07 for orbital      9a         

 convergence criteria satisfied after    13 iterations


                  ------------------------------------------ 
                 |  total energy      =    -95.26068960680  |
                  ------------------------------------------ 
                 :  kinetic energy    =     95.17181809168  :
                 :  potential energy  =   -190.43250769848  :
                 :  virial theorem    =      1.99906707042  :
                 :  wavefunction norm =      1.00000000000  :
                  .......................................... 


 orbitals $scfmo  will be written to file mos

    irrep                  5a          6a          7a          8a          9a   
 eigenvalues H         -0.66189    -0.60361    -0.55496    -0.51555    -0.39345
            eV         -18.0112    -16.4251    -15.1012    -14.0290    -10.7064
 occupation              2.0000      2.0000      2.0000      2.0000      2.0000 

    irrep                 10a         11a         12a         13a         14a   
 eigenvalues H          0.06487     0.12152     0.13007     0.14886     0.16199
            eV           1.7654      3.3067      3.5394      4.0508      4.4079
 
 
 
 
 ==============================================================================
                           electrostatic moments
 ==============================================================================

 reference point for electrostatic moments:    0.00000   0.00000   0.00000

 
              nuc           elec       ->  total
 ------------------------------------------------------------------------------
                          charge      
 ------------------------------------------------------------------------------
          18.000000     -18.000000       0.000000
 
 ------------------------------------------------------------------------------
                       dipole moment  
 ------------------------------------------------------------------------------
   x     -34.706268      34.873568       0.167300
   y      11.417495     -11.711600      -0.294105
   z      20.572034     -20.122784       0.449251
 
   | dipole moment | =     0.5624 a.u. =     1.4295 debye 
 
 ------------------------------------------------------------------------------
                     quadrupole moment
 ------------------------------------------------------------------------------
  xx      78.580755     -88.650144     -10.069389
  yy      29.902242     -39.673604      -9.771361
  zz      52.995434     -64.327191     -11.331757
  xy     -26.440405      27.165126       0.724720
  xz     -46.755604      45.616617      -1.138986
  yz      31.518871     -31.045741       0.473130
 
     1/3  trace=     -10.390836
     anisotropy=       2.863162
 
 ==============================================================================
 


    ------------------------------------------------------------------------
         total  cpu-time : 38 minutes and 54 seconds
         total wall-time :  3 minutes and  2 seconds
    ------------------------------------------------------------------------

   ****  dscf : all done  ****


    2019-04-01 21:41:44.978 

