
   OpenMP run-time library returned nthreads = 28

 rirpa (c-13-32) : TURBOMOLE V7.3 ( 22142 ) 4 Jul 2018 at 18:12:42
 Copyright (C) 2018 TURBOMOLE GmbH, Karlsruhe


    2019-03-19 18:00:28.114 

 
 
    *************************************************************************
    *************************** PROGRAM RIRPA *******************************
    ******                                                             ******
    ******              H. Eshuis, J. E. Bates and F. Furche           ******
    ******                                                             ******
    ****** Nov 2011                                                    ******
    ****** Copyright TURBOMOLE GmbH                                    ******
    *************************************************************************
    
    
                                References:                                  
    
                   RIRPA:                                                    
                     H. Eshuis, J. Yarkony and F. Furche                     
                     Fast computation of molecular random phase              
                     approximation correlation energies using resolution     
                     of the identity imaginary frequency integration         
                     J. Chem. Phys. 132: 234114 (2010)                       
    
                     H. Eshuis, J. E. Bates and F. Furche                    
                     Electron correlation methods based on                   
                     the random phase approximation                          
                     Theor. Chem. Acc.  131: 1084 (2012)                     
    
                   TWO-COMPONENT RIRPA:                                      
                     M. Kuehn                                                
                     Correlation energies from the                           
                     two-component random-phase approximation                
                     J. Chem. Theory Comput. 10: 623 (2014)                  
    
                   RIRPA GRADIENTS:                                          
                     Asbjoern M. Burow, Jefferson E. Bates, Filipp Furche*,  
                     and Henk Eshuis                                         
                     Analytical First-Order Molecular Properties and Forces  
                     within the Adiabatic Connection Random Phase            
                     Approximation                                           
                     J. Chem. Theory Comput. 10: 180 (2014)                  
    
    
    
      ... OpenMP parallelization enabled, threads:   28

   *-----------------------------------------------------------------------*
   |                     program will use 28 thread(s)                     |
   *-----------------------------------------------------------------------*
  Effective Core Potentials (ECPs) detected!
 
                FOUND RI-J FLAG
 
  HF exact exchange energy will be computed using RI-J.
 
  The HXX energy will NOT be computed due to nohxx option. 
 


              +--------------------------------------------------+
              | Atomic coordinate, charge and isotop information |
              +--------------------------------------------------+

                    atomic coordinates            atom    charge  isotop
          0.99983098    2.27022842    4.28976172    c      0.000     0
          2.48710807    0.09584961    4.39163542    c      0.000     0
          1.17615423   -2.19117405    4.48559974    c      0.000     0
         -1.45226929   -2.39010747    4.46730796    c      0.000     0
         -2.78628344   -0.12300939    4.35759329    c      0.000     0
         -1.63793068    2.25055548    4.23535275    c      0.000     0
         -3.11407188    4.62659342    4.11977596    c      0.000     0
         -3.08840784    6.26697104    6.18672877    c      0.000     0
         -4.41646638    8.53991405    6.18264081    c      0.000     0
         -5.82011739    9.20888476    4.06146507    c      0.000     0
         -5.87524501    7.60273202    1.97368050    c      0.000     0
         -4.53661592    5.33855564    1.98829002    c      0.000     0
         -2.75030830   -4.87040525    4.67298264    c      0.000     0
         -3.55171109   -6.25271537    2.55143576    c      0.000     0
         -4.75463168   -8.56476525    2.89864098    c      0.000     0
         -5.17724158   -9.54052768    5.30850749    c      0.000     0
         -4.38623898   -8.18377155    7.41816738    c      0.000     0
         -3.18404774   -5.86848176    7.07458722    c      0.000     0
          5.28649567    0.19888668    4.47054318    c      0.000     0
          6.75361331    0.96847579    2.39078996    c      0.000     0
          9.37121131    1.02923140    2.61221743    c      0.000     0
         10.57622705    0.33338673    4.84870459    c      0.000     0
          9.13917161   -0.44205910    6.91024675    c      0.000     0
          6.51753572   -0.50056906    6.69710277    c      0.000     0
          2.17055653    4.53148358    4.24585005    f      0.000     0
         -5.33166529   -0.22509561    4.40915431    f      0.000     0
          2.53078935   -4.34374056    4.59245764    f      0.000     0
         -1.77099151    5.65992826    8.27334732    f      0.000     0
         -4.36022207   10.06979858    8.19775174    f      0.000     0
         -7.10409534   11.39032407    4.03085675    f      0.000     0
         -7.23620931    8.31980689   -0.04731399    f      0.000     0
         -5.55104976   -9.94758328    0.91227972    f      0.000     0
         -6.33821694  -11.77446441    5.60951590    f      0.000     0
         -4.78461974   -9.10390981    9.74574967    f      0.000     0
         -2.43885163   -4.58425191    9.14502184    f      0.000     0
         10.84072745    1.74962522    0.65825925    f      0.000     0
         13.10484609    0.39960173    5.02748196    f      0.000     0
         10.27660790   -1.11001677    9.07483649    f      0.000     0
          5.16825874   -1.23490832    8.72936780    f      0.000     0
         -4.64886568    3.05669374   -1.24295190    i      0.000     0
         -2.98668180   -4.93812542   -1.21244390    i      0.000     0
          5.10080245    1.97086226   -1.14747160    i      0.000     0
          3.32504863    3.53778945   -5.88195488    n      7.000     0
          5.31113175    2.71334241   -7.63579180    c      6.000     0
          3.28614670    6.30798210   -5.69960578    c      6.000     0
          0.81458646    2.57125423   -6.60132364    c      6.000     0
          5.41722187    0.65317739   -7.66922896    h      1.000     0
          4.95804471    3.40575991   -9.57173914    h      1.000     0
          7.12955213    3.44209591   -6.98263474    h      1.000     0
          1.87201027    6.87726282   -4.30604713    h      1.000     0
          5.14008849    6.97231737   -5.07616450    h      1.000     0
          2.83153003    7.20013373   -7.52906246    h      1.000     0
          0.48896953   -0.25633627   -6.10784758    c      6.000     0
         -0.57917338    3.61545875   -5.48431276    h      1.000     0
          0.43811970    2.99824916   -8.61368357    h      1.000     0
         -2.05549796   -1.15671996   -7.12882732    c      6.000     0
          2.02220718   -1.31170110   -7.00935219    h      1.000     0
          0.59750572   -0.62164878   -4.07356776    h      1.000     0
         -2.68152854   -3.77552332   -6.43226601    n      7.000     0
         -3.57121007    0.04075393   -6.37395580    h      1.000     0
         -2.09912193   -0.93656318   -9.20897350    h      1.000     0
         -5.25288824   -4.39542434   -7.27486292    c      6.000     0
         -0.86146093   -5.61042528   -7.44374142    c      6.000     0
         -5.73228255   -6.30458081   -6.64998978    h      1.000     0
         -6.58817108   -3.06771482   -6.42407349    h      1.000     0
         -5.43249560   -4.29629915   -9.35048577    h      1.000     0
         -1.46669079   -7.50977586   -6.90544491    h      1.000     0
         -0.73504393   -5.50754310   -9.52417590    h      1.000     0
          1.00652163   -5.27402855   -6.63639349    h      1.000     0
 
       center of nuclear mass  :   -0.32559743    0.00391925    1.42073647
       center of nuclear charge:    0.27161050   -0.00333441   -6.76947074
              +-------------------------------------------------+
              |        Rotational Constants Section             |
              +-------------------------------------------------+
                                   Center of Mass [a.u]:
              -0.32559743060259         0.00391925410063         1.42073647272417
                     Principal Moments of Inertia [a.u.]
           48668.30924744062941     53254.54723025926796     58291.00498075182259
                       Rotational constants A,B,C [a.u.]
               0.00001027362585         0.00000938886961         0.00000857765276
                     Rotational constants A,B,C [cm**-1]
               0.00123693811080         0.00113041401397         0.00103274401456
                        Rotational constants A,B,C [MHz]
              37.08247166311757        33.88895958042443        30.96088666091793

   * BASIS SET information:

              +--------------------------------------------------+
              |               basis set information              |
              +--------------------------------------------------+

              we will work with the 1s 3p 5d 7f 9g ... basis set
              ...i.e. with spherical basis functions...

   type   atoms  prim   cont   basis
   ---------------------------------------------------------------------------
    c       31     50     30   cc-pVTZ   [4s3p2d1f|18s5p2d1f]
    f       15     50     30   cc-pVTZ   [4s3p2d1f|18s5p2d1f]
    i        3    133     39   cc-pVTZ-PP   [5s4p3d1f|21s20p9d1f]
    n        2     50     30   cc-pVTZ   [4s3p2d1f|18s5p2d1f]
    h       18     16     14   cc-pVTZ   [3s2p1d|5s2p1d]
   ---------------------------------------------------------------------------
   total:   69   3087   1809
   ---------------------------------------------------------------------------

   total number of primitive shells          :  137
   total number of contracted shells         :  627
   total number of cartesian basis functions : 2085
   total number of SCF-basis functions       : 1809


   * AUXILIARY BASIS SET information:

              +--------------------------------------------------+
              |               basis set information              |
              +--------------------------------------------------+

              we will work with the 1s 3p 5d 7f 9g ... basis set
              ...i.e. with spherical basis functions...

   type   atoms  prim   cont   basis
   ---------------------------------------------------------------------------
    c       31     81     81   cc-pVTZ   [8s6p5d3f1g|8s6p5d3f1g]
    f       15     81     81   cc-pVTZ   [8s6p5d3f1g|8s6p5d3f1g]
    i        3    140    140   cc-pVTZ-PP   [8s8p7d5f3g1h|8s8p7d5f3g1h]
    n        2     81     81   cc-pVTZ   [8s6p5d3f1g|8s6p5d3f1g]
    h       18     30     30   cc-pVTZ   [4s3p2d1f|4s3p2d1f]
   ---------------------------------------------------------------------------
   total:   69   4848   4848
   ---------------------------------------------------------------------------

   total number of primitive shells          :  111
   total number of contracted shells         : 1380
   total number of cartesian basis functions : 6048
   total number of SCF-basis functions       : 4848


   * RIJ AUXILIARY BASIS SET information:

              +--------------------------------------------------+
              |               basis set information              |
              +--------------------------------------------------+

              we will work with the 1s 3p 5d 7f 9g ... basis set
              ...i.e. with spherical basis functions...

   type   atoms  prim   cont   basis
   ---------------------------------------------------------------------------
    c       31     70     49   cc-pVTZ   [6s4p3d1f1g|12s5p4d2f1g]
    f       15     70     49   cc-pVTZ   [6s4p3d1f1g|12s5p4d2f1g]
    i        3    160    140   universal_jkbas   [11s10p10d7f|13s12p11d8f]
    n        2     70     49   cc-pVTZ   [6s4p3d1f1g|12s5p4d2f1g]
    h       18     16     11   cc-pVTZ   [3s1p1d|5s2p1d]
   ---------------------------------------------------------------------------
   total:   69   4128   2970
   ---------------------------------------------------------------------------

   total number of primitive shells          :  124
   total number of contracted shells         :  924
   total number of cartesian basis functions : 3657
   total number of SCF-basis functions       : 2970

  No keyword $dft found! - HARTREE FOCK CALCULATION

 reading orbital data $scfmo  from file mos
 orbital characterization : scfconv=9

 integral neglect threshold       :  0.33E+02

 scfconv                     9
 number of unique ecp types :                     1

 MAXIMUM CORE MEMORY WHICH CAN BE ALLOCATED DYNAMICALLY = 84000 MiB
              ( or 11010048000 double words per process)


 there are 1 real representations :   a   

 maximum number of shells which are related by symmetry :  1

 time elapsed for calculating density matrices :   0.425 sec

     total memory allocated for calculation of (Q|P)**(-1/2) : 270 MiB


     calculation of (P|Q) ...
     time in lp2sym        cpu: 28.98 sec    wall:  1.06 sec    ratio: 27.2


     calculation of the Cholesky decomposition of (P|Q)**(-1) ...
     time in invmetri      cpu:  3 min  1 s  wall:  0 min  8 s  ratio: 22.7

   threshold for RMS(d[D]) in SCF was     :  0.10E-06
   integral neglect threshold             :  0.55E-14
   derivative integral neglect threshold  :  0.10E-06


 setting up bound for integral derivative estimation

 increment for numerical differentiation : 0.00050000
 total memory allocated for calculation of (Q|P)**(-1/2) : 270 MiB
 Dividing biap into                    639  block chunks,
 using                    65 MiB per block
 Reserved                  41881 MiB for BLAS routines
 Estimated total memory usage:                  83942 MiB
 number of passes for ispin    1
 =    1
 
 Number of eigenvalues < 6e-3:                      0
 
 
            -----------------------------
            Complex frequency integration
            -----------------------------
 
 Number of Clenshaw-Curtis nodes:                    100
 Optimized scaling parameter    :    1.00000000000000     
 Sensitivity measure            :  -1.131733595727269E-014
 
 Done with rirpa frequency point #                     1
 Done with rirpa frequency point #                     2
 Done with rirpa frequency point #                     3
 Done with rirpa frequency point #                     4
 Done with rirpa frequency point #                     5
 Done with rirpa frequency point #                     6
 Done with rirpa frequency point #                     7
 Done with rirpa frequency point #                     8
 Done with rirpa frequency point #                     9
 Done with rirpa frequency point #                    10
 Done with rirpa frequency point #                    11
 Done with rirpa frequency point #                    12
 Done with rirpa frequency point #                    13
 Done with rirpa frequency point #                    14
 Done with rirpa frequency point #                    15
 Done with rirpa frequency point #                    16
 Done with rirpa frequency point #                    17
 Done with rirpa frequency point #                    18
 Done with rirpa frequency point #                    19
 Done with rirpa frequency point #                    20
 Done with rirpa frequency point #                    21
 Done with rirpa frequency point #                    22
 Done with rirpa frequency point #                    23
 Done with rirpa frequency point #                    24
 Done with rirpa frequency point #                    25
 Done with rirpa frequency point #                    26
 Done with rirpa frequency point #                    27
 Done with rirpa frequency point #                    28
 Done with rirpa frequency point #                    29
 Done with rirpa frequency point #                    30
 Done with rirpa frequency point #                    31
 Done with rirpa frequency point #                    32
 Done with rirpa frequency point #                    33
 Done with rirpa frequency point #                    34
 Done with rirpa frequency point #                    35
 Done with rirpa frequency point #                    36
 Done with rirpa frequency point #                    37
 Done with rirpa frequency point #                    38
 Done with rirpa frequency point #                    39
 Done with rirpa frequency point #                    40
 Done with rirpa frequency point #                    41
 Done with rirpa frequency point #                    42
 Done with rirpa frequency point #                    43
 Done with rirpa frequency point #                    44
 Done with rirpa frequency point #                    45
 Done with rirpa frequency point #                    46
 Done with rirpa frequency point #                    47
 Done with rirpa frequency point #                    48
 Done with rirpa frequency point #                    49
 Done with rirpa frequency point #                    50
 Done with rirpa frequency point #                    51
 Done with rirpa frequency point #                    52
 Done with rirpa frequency point #                    53
 Done with rirpa frequency point #                    54
 Done with rirpa frequency point #                    55
 Done with rirpa frequency point #                    56
 Done with rirpa frequency point #                    57
 Done with rirpa frequency point #                    58
 Done with rirpa frequency point #                    59
 Done with rirpa frequency point #                    60
 Done with rirpa frequency point #                    61
 Done with rirpa frequency point #                    62
 Done with rirpa frequency point #                    63
 Done with rirpa frequency point #                    64
 Done with rirpa frequency point #                    65
 Done with rirpa frequency point #                    66
 Done with rirpa frequency point #                    67
 Done with rirpa frequency point #                    68
 Done with rirpa frequency point #                    69
 Done with rirpa frequency point #                    70
 Done with rirpa frequency point #                    71
 Done with rirpa frequency point #                    72
 Done with rirpa frequency point #                    73
 Done with rirpa frequency point #                    74
 Done with rirpa frequency point #                    75
 Done with rirpa frequency point #                    76
 Done with rirpa frequency point #                    77
 Done with rirpa frequency point #                    78
 Done with rirpa frequency point #                    79
 Done with rirpa frequency point #                    80
 Done with rirpa frequency point #                    81
 Done with rirpa frequency point #                    82
 Done with rirpa frequency point #                    83
 Done with rirpa frequency point #                    84
 Done with rirpa frequency point #                    85
 Done with rirpa frequency point #                    86
 Done with rirpa frequency point #                    87
 Done with rirpa frequency point #                    88
 Done with rirpa frequency point #                    89
 Done with rirpa frequency point #                    90
 Done with rirpa frequency point #                    91
 Done with rirpa frequency point #                    92
 Done with rirpa frequency point #                    93
 Done with rirpa frequency point #                    94
 Done with rirpa frequency point #                    95
 Done with rirpa frequency point #                    96
 Done with rirpa frequency point #                    97
 Done with rirpa frequency point #                    98
 Done with rirpa frequency point #                    99
 Done with rirpa frequency point #                   100
 


 RI-RPA correlation energy: -0.2033027288289582E+01
 
 
 HXX Energy calculation skipped due to nohxx option
 

                  --------------------------------------------------- 
                 |  HXX+RIRPA total energy     =     -2.03302728829  |
                  ---------------------------------------------------- 
                 :  RIRPA correlation energy   =     -2.03302728829  :
                 :  HXX total energy           =      0.00000000000  :
                 :  Hartree energy             =      0.00000000000  :
                 :  Exact Exchange energy      =      0.00000000000  :
                  .................................................... 


    ------------------------------------------------------------------------
    Rirpa profiling                cpu                    wall         ratio
    ------------------------------------------------------------------------
    module                         sec     %               sec     %
    ------------------------------------------------------------------------
    RIRPA                     38297.0  100.00         1920.5  100.00  19.9
    STARTUP                       9.2    0.02            4.7    0.24   2.0
    riccmos                      20.3    0.05            4.9    0.26   4.1
    riccaux                     210.2    0.55            9.1    0.47  23.1
    riccbound                    27.3    0.07           22.4    1.17   1.2
    ccmkbaoi                   1464.9    3.83          182.0    9.47   8.1
    cc3idxnrm                   125.7    0.33            4.6    0.24  27.4
    ecrpa                     36432.9   95.13         1607.5   83.70  22.7
    tread                       513.3    1.34          195.6   10.19   2.6
    tqbuild                   31571.1   82.44         1210.8   63.04  26.1
    trpaln                     2723.6    7.11           97.5    5.08  27.9
    ------------------------------------------------------------------------
    sum                      111395.9  290.87         5259.6  273.86  21.2
    ------------------------------------------------------------------------


    ------------------------------------------------------------------------
         total  cpu-time : 10 hours 38 minutes and 21 seconds
         total wall-time : 32 minutes and  1 seconds
    ------------------------------------------------------------------------

   ****  rirpa : all done  ****


    2019-03-19 18:32:28.899 

