
   OpenMP run-time library returned nthreads =  8
 operating system is UNIX !

 dscf (c-13-222) : TURBOMOLE V7.3 ( 22142 ) 4 Jul 2018 at 18:12:42
 Copyright (C) 2018 TURBOMOLE GmbH, Karlsruhe


    2019-04-02 13:32:31.634 



                             d s c f - program

                   idea & directorship : reinhart ahlrichs
                   program development : marco haeser
                                         michael baer
                           dft version : oliver treutler


                          quantum chemistry group
                          universitaet  karlsruhe
                                  germany




                          References             
                                                 
          TURBOMOLE:                             
              R. Ahlrichs, M. Baer, M. Haeser, H. Horn, and
              C. Koelmel
              Electronic structure calculations on workstation
              computers: the program system TURBOMOLE
              Chem. Phys. Lett. 162: 165 (1989)
          Density Functional:                              
              O. Treutler and R. Ahlrichs                      
              Efficient Molecular Numerical Integration Schemes
              J. Chem. Phys. 102: 346 (1995)                   
          Parallel Version:                                
              Performance of parallel TURBOMOLE for Density    
              Functional Calculations                          
              M. v. Arnim and R. Ahlrichs                      
              J. Comp. Chem. 19: 1746 (1998)                   
                                         




              +--------------------------------------------------+
              | Atomic coordinate, charge and isotop information |
              +--------------------------------------------------+

                    atomic coordinates            atom    charge  isotop
         -4.78725956   -0.55724068    1.34765584    c      6.000     0
         -4.84455260   -1.84641703   -0.25780143    h      1.000     0
         -4.85088607   -1.69296010    3.06462890    h      1.000     0
         -6.49012477    0.59707245    1.29277010    h      1.000     0
         -2.40351407    1.05381611    1.27434566    c      6.000     0
         -2.40189162    2.37456507    2.86164895    h      1.000     0
         -2.39358863    2.20700324   -0.43808865    h      1.000     0
         -0.00025519   -0.52613418    1.35985287    c      6.000     0
         -0.00030118   -1.67662080    3.07767806    h      1.000     0
         -0.00069055   -1.85328122   -0.22564160    h      1.000     0
          2.40353277    1.05329968    1.27379084    c      6.000     0
          2.40178854    2.37469281    2.86048867    h      1.000     0
          2.39359608    2.20565528   -0.43914765    h      1.000     0
          4.78743929   -0.55735915    1.34790414    c      6.000     0
          4.84510509   -1.84772527   -0.25658392    h      1.000     0
          6.48990451    0.59763405    1.29181575    h      1.000     0
          4.85198184   -1.69169959    3.06575684    h      1.000     0
 
       center of nuclear mass  :   -0.00000469    0.07411765    1.32139449
       center of nuclear charge:    0.00000000    0.06062404    1.32187667

              +--------------------------------------------------+
              |               basis set information              |
              +--------------------------------------------------+

              we will work with the 1s 3p 5d 7f 9g ... basis set
              ...i.e. with spherical basis functions...

   type   atoms  prim   cont   basis
   ---------------------------------------------------------------------------
    c        5     77     57   def2-QZVP   [7s4p3d2f1g|15s8p3d2f1g]
    h       12     33     30   def2-QZVP   [4s3p2d1f|7s3p2d1f]
   ---------------------------------------------------------------------------
   total:   17    781    645
   ---------------------------------------------------------------------------

   total number of primitive shells          :   42
   total number of contracted shells         :  205
   total number of cartesian basis functions :  780
   total number of SCF-basis functions       :  645


 integral neglect threshold       :  0.43E-13
 integral storage threshold THIZE :  0.10E-04
 integral storage threshold THIME :         5


 DENSITY CONVERGENCE CHECK SWITCHED ON !
 SCF CONVERGENCE IF RMS(delta[D]) <     0.1000000000E-06


 symmetry group of the molecule :   c1 

 the group has the following generators :
   c1(z)

    1 symmetry operations found

 there are 1 real representations :   a   

 maximum number of shells which are related by symmetry :  1


    mo occupation :
   irrep   mo's   occupied
    a      645       21
 
 number of basis functions   :                    645
 number of occupied orbitals :                     21
 

 automatic virtual orbital shift switched on 
      shift if e(lumo)-e(homo) < 0.10000000    


          ------------------------
          nuclear repulsion energy  :   185.636650021    
          ------------------------


         -----------------
         -S,T+V- integrals
         -----------------

 1e-integrals will be neglected if expon. factor < 0.428457E-14
 
   Difference densities algorithm switched on.
   The maximal number of linear combinations of
   difference densities is                    20 .

 DIIS switched on: error vector is FDS-SDF
 Max. Iterations for DIIS is     :   5
 DIIS matrix (see manual) 
    Scaling factor of diagonals  :  1.200
    threshold for scaling factor :  0.000

 scf convergence criterion : increment of total energy < .1000000D-08
                  and increment of one-electron energy < .1000000D-05

  MOs are in ASCII format !


 reading orbital data $scfmo  from file mos
 orbital characterization : scfconv=9

 DSCF restart information will be dumped onto file mos

 
                                              current damping :  0.700
 ITERATION  ENERGY          1e-ENERGY        2e-ENERGY     RMS[dD(SAO)]   TOL
   1  -196.36858404344    -631.72304270     249.71780864    0.000D+00 0.427D-13
          max. resid. norm for Fia-block=  1.975D-01 for orbital      3a         
          max. resid. fock norm         =  6.274D-01 for orbital    640a         
          Delta Eig. =    46.9581511801 eV 
 
                                              current damping :  0.650
 ITERATION  ENERGY          1e-ENERGY        2e-ENERGY     RMS[dD(SAO)]   TOL
   2  -196.40754253597    -631.09251104     249.04831848    0.523D-03 0.279D-13
          Norm of current diis error: 0.69773    
          max. resid. norm for Fia-block=  8.797D-02 for orbital      5a         
          max. resid. fock norm         =  2.523D-01 for orbital    637a         
          Delta Eig. =    19.1478471636 eV 
 
                                              current damping :  0.600
 ITERATION  ENERGY          1e-ENERGY        2e-ENERGY     RMS[dD(SAO)]   TOL
   3  -196.41584602738    -631.25393553     249.20143948    0.246D-03 0.209D-13
          Norm of current diis error: 0.30474    
          max. resid. norm for Fia-block=  3.576D-02 for orbital      3a         
          max. resid. fock norm         =  1.011D-01 for orbital    640a         
          Delta Eig. =     8.1060993549 eV 
 
                                              current damping :  0.650
 ITERATION  ENERGY          1e-ENERGY        2e-ENERGY     RMS[dD(SAO)]   TOL
   4  -196.41757512943    -631.18956760     249.13534245    0.103D-03 0.183D-13
          Norm of current diis error: 0.12205    
          max. resid. norm for Fia-block=  1.352D-02 for orbital      3a         
          max. resid. fock norm         =  3.782D-02 for orbital    640a         
          Delta Eig. =     2.9176665283 eV 
 
                                              current damping :  0.500
 ITERATION  ENERGY          1e-ENERGY        2e-ENERGY     RMS[dD(SAO)]   TOL
   5  -196.41786063683    -631.18030302     249.12579236    0.391D-04 0.168D-13
          Norm of current diis error: 0.51727E-01
          max. resid. norm for Fia-block=  5.318D-03 for orbital      3a         
          max. resid. fock norm         =  1.492D-02 for orbital    637a         
 mo-orthogonalization: Cholesky decomposition
          Delta Eig. =     1.2672052968 eV 
 
                                              current damping :  0.350
 ITERATION  ENERGY          1e-ENERGY        2e-ENERGY     RMS[dD(SAO)]   TOL
   6  -196.41791778176    -631.17469458     249.12012678    0.175D-04 0.154D-13
          Norm of current diis error: 0.19233E-01
          max. resid. norm for Fia-block=  1.760D-03 for orbital      3a         
          max. resid. fock norm         =  4.977D-03 for orbital    637a         
          Delta Eig. =     0.4695183090 eV 
 
                                              current damping :  0.200
 ITERATION  ENERGY          1e-ENERGY        2e-ENERGY     RMS[dD(SAO)]   TOL
   7  -196.41792680504    -631.17207214     249.11749532    0.704D-05 0.141D-13
          Norm of current diis error: 0.60001E-02
          max. resid. norm for Fia-block=  4.508D-04 for orbital      5a         
          max. resid. fock norm         =  1.287D-03 for orbital    637a         
          Delta Eig. =     0.1360529916 eV 
 
                                              current damping :  0.050
 ITERATION  ENERGY          1e-ENERGY        2e-ENERGY     RMS[dD(SAO)]   TOL
   8  -196.41792784267    -631.17126130     249.11668344    0.253D-05 0.131D-13
          Norm of current diis error: 0.14860E-02
          max. resid. norm for Fia-block=  8.299D-05 for orbital     14a         
          max. resid. fock norm         =  2.152D-04 for orbital    637a         
          Delta Eig. =     0.0260455398 eV 
 
                                              current damping :  0.050
 ITERATION  ENERGY          1e-ENERGY        2e-ENERGY     RMS[dD(SAO)]   TOL
   9  -196.41792792240    -631.17084201     249.11626406    0.854D-06 0.123D-13
          Norm of current diis error: 0.27457E-03
          max. resid. norm for Fia-block=  1.771D-05 for orbital     19a         
          max. resid. fock norm         =  1.800D-05 for orbital     19a         
          Delta Eig. =     0.0010218956 eV 
 
                                              current damping :  0.050
 ITERATION  ENERGY          1e-ENERGY        2e-ENERGY     RMS[dD(SAO)]   TOL
  10  -196.41792792576    -631.17081297     249.11623502    0.240D-06 0.118D-13
          Norm of current diis error: 0.59135E-04
          max. resid. norm for Fia-block=  4.542D-06 for orbital     19a         
          max. resid. fock norm         =  4.551D-06 for orbital     19a         
 mo-orthogonalization: Cholesky decomposition
          Delta Eig. =     0.0001021180 eV 

 DENSITY CONVERGED !

 
                                              current damping :  0.050
 ITERATION  ENERGY          1e-ENERGY        2e-ENERGY     RMS[dD(SAO)]   TOL
  11  -196.41792792594    -631.17076920     249.11619126    0.688D-07 0.115D-13
          Norm of current diis error: 0.13313E-04
          max. resid. norm for Fia-block=  9.851D-07 for orbital     19a         
          max. resid. fock norm         =  1.024D-06 for orbital     19a         
          Delta Eig. =     0.0000471440 eV 

 DENSITY CONVERGED !

 
                                              current damping :  0.100
 ITERATION  ENERGY          1e-ENERGY        2e-ENERGY     RMS[dD(SAO)]   TOL
  12  -196.41792792595    -631.17078013     249.11620219    0.155D-07 0.113D-13
          Norm of current diis error: 0.34184E-05
          max. resid. norm for Fia-block=  2.170D-07 for orbital     19a         
          max. resid. fock norm         =  2.528D-07 for orbital     19a         
          Delta Eig. =     0.0000174576 eV 

 ENERGY & DENSITY CONVERGED !

 
                                              current damping :  0.150
 ITERATION  ENERGY          1e-ENERGY        2e-ENERGY     RMS[dD(SAO)]   TOL
  13  -196.41792792594    -631.17077447     249.11619652    0.296D-08 0.122D-13
          max. resid. norm for Fia-block=  6.756D-08 for orbital     21a         
          max. resid. fock norm         =  7.619D-08 for orbital     21a         

 convergence criteria satisfied after    13 iterations


                  ------------------------------------------ 
                 |  total energy      =   -196.41792792594  |
                  ------------------------------------------ 
                 :  kinetic energy    =    196.31154578550  :
                 :  potential energy  =   -392.72947371145  :
                 :  virial theorem    =      1.99945838885  :
                 :  wavefunction norm =      1.00000000000  :
                  .......................................... 


 orbitals $scfmo  will be written to file mos

    irrep                 17a         18a         19a         20a         21a   
 eigenvalues H         -0.49464    -0.47609    -0.46189    -0.45931    -0.44691
            eV         -13.4600    -12.9552    -12.5687    -12.4985    -12.1611
 occupation              2.0000      2.0000      2.0000      2.0000      2.0000 

    irrep                 22a         23a         24a         25a         26a   
 eigenvalues H          0.11141     0.11550     0.12245     0.13003     0.14660
            eV           3.0317      3.1431      3.3320      3.5383      3.9891
 
 
 
 
 ==============================================================================
                           electrostatic moments
 ==============================================================================

 reference point for electrostatic moments:    0.00000   0.00000   0.00000

 
              nuc           elec       ->  total
 ------------------------------------------------------------------------------
                          charge      
 ------------------------------------------------------------------------------
          42.000000     -42.000000       0.000000
 
 ------------------------------------------------------------------------------
                       dipole moment  
 ------------------------------------------------------------------------------
   x       0.000000       0.000007       0.000007
   y       2.546210      -2.512965       0.033245
   z      55.518820     -55.520401      -0.001581
 
   | dipole moment | =     0.0333 a.u. =     0.0846 debye 
 
 ------------------------------------------------------------------------------
                     quadrupole moment
 ------------------------------------------------------------------------------
  xx     545.602050    -572.756814     -27.154764
  yy      59.231893     -85.823274     -26.591380
  zz     100.914703    -126.627957     -25.713254
  xy      -0.011476       0.011314      -0.000162
  xz       0.000363      -0.000432      -0.000068
  yz       1.831397      -1.743454       0.087942
 
     1/3  trace=     -26.486466
     anisotropy=       1.267451
 
 ==============================================================================
 


    ------------------------------------------------------------------------
         total  cpu-time :  1 hours 28 minutes and 34 seconds
         total wall-time : 11 minutes and 15 seconds
    ------------------------------------------------------------------------

   ****  dscf : all done  ****


    2019-04-02 13:43:46.313 

