           Doing BLAS/Lapack in the master proc. with  8 CPUs.
           SMPCPUS    set: Shared-memory Parallelization with   8 CPUs.

           SMP Parallelization Reference:
           C. van Wullen, J. Comput. Chem. 32 (2011) 1195--1201
 operating system is UNIX !

 ridft (c-8-332.gp.local) : TURBOMOLE V7.2 ( 21454 ) 4 Oct 2017 at 12:48:15
 Copyright (C) 2017 TURBOMOLE GmbH, Karlsruhe


    2018-04-28 20:55:31.285 



                                  r i d f t

                        DFT program with RI approximation 
                                for coulomb part 




                                                 
                                 References:     
                                                 
          TURBOMOLE:                             
              R. Ahlrichs, M. Baer, M. Haeser, H. Horn, and
              C. Koelmel
              Electronic structure calculations on workstation
              computers: the program system TURBOMOLE
              Chem. Phys. Lett. 162: 165 (1989)
          Density Functional:                              
              O. Treutler and R. Ahlrichs                      
              Efficient Molecular Numerical Integration Schemes
              J. Chem. Phys. 102: 346 (1995)                   
          Parallel Version:                                
              Performance of parallel TURBOMOLE for Density    
              Functional Calculations                          
              M. v. Arnim and R. Ahlrichs                      
              J. Comp. Chem. 19: 1746 (1998)                   
          RI-J Method:                                     
              Auxiliary Basis Sets to approximate Coulomb      
              Potentials                                       
              Chem. Phys. Lett. 240: 283 (1995)                
              K. Eichkorn, O. Treutler, H. Oehm, M. Haeser     
              and R. Ahlrichs                                  
              Chem. Phys. Lett. 242: 652 (1995)                
                                                           
              Auxiliary Basis Sets for Main Row Atoms and their
              Use to approximate Coulomb Potentials            
              K. Eichkorn, F. Weigend, O. Treutler and         
              R. Ahlrichs                                      
              Theo. Chem. Acc. 97: 119 (1997)                   
                                                           
              Accurate Coulomb-fitting basis sets for H to Rn 
              F. Weigend                                        
              Phys. Chem. Chem. Phys. 8: 1057 (2006)            
                                                           
          Multipole accelerated RI-J (MARI-J):             
              Fast evaluation of the Coulomb potential for     
              electron densities using multipole accelerated   
              resolution of identity approximation             
              M. Sierka, A. Hogekamp and R. Ahlrichs           
              J. Chem. Phys. 118: 9136 (2003)                  
          RI-JK Method:                                     
              A fully direct RI-HF algorithm: Implementation,
              optimised auxiliary basis sets, demonstration of
              accuracy and efficiency                         
              F. Weigend                                      
              Phys. Chem. Chem. Phys. 4: 4285 (2002)           
          Two-component HF and DFT with spin-orbit coupling:  
              Self-consistent treatment of spin-orbit         
              interactions with efficient Hartree-Fock and    
              density functional methods                      
              M. K. Armbruster, F. Weigend, C. van Wüllen and 
              W. Klopper                                      
              Phys. Chem. Chem. Phys. 10: 1748 (2008)         
          Relativistic all-electron 2c calculations           
              An efficient implementation of two-component    
              relativistic exact-decoupling methods for large 
              molecules                                       
              D. Peng, N. Middendorf, F. Weigend, M. Reiher   
              J. Chem. Phys. 138, 184105 (2013)               
                                         




              +--------------------------------------------------+
              |      general information about current run       |
              +--------------------------------------------------+

 

 DENSITY CONVERGENCE CHECK SWITCHED ON !
 SCF CONVERGENCE IF RMS(delta[D]) <     0.1000000000E-06

 PBE functional
 exchange:    LDA + PBE
 correlation: LDA (PW) + PBE
 A DFT calculation using the RI-J approximation will be carried out.
 Allocatable memory for RI due to $ricore (MB):                  5000


              +--------------------------------------------------+
              | Atomic coordinate, charge and isotop information |
              +--------------------------------------------------+

                    atomic coordinates            atom    charge  isotop
          0.03704729    1.25938784    6.58998956    c      6.000     0
          1.75759381    2.31666263    6.28930608    h      1.000     0
         -1.68174839    2.32217781    6.88660192    h      1.000     0
          0.03767597   -1.25902618    6.59023945    c      6.000     0
          1.75871701   -2.31553896    6.28975328    h      1.000     0
         -1.68062950   -2.32261085    6.88709493    h      1.000     0
 
       center of nuclear mass  :    0.03752282    0.00017966    6.58983778
       center of nuclear charge:    0.03764203    0.00017879    6.58963314

              +--------------------------------------------------+
              |               basis set information              |
              +--------------------------------------------------+

              we will work with the 1s 3p 5d 7f 9g ... basis set
              ...i.e. with spherical basis functions...

   type   atoms  prim   cont   basis
   ---------------------------------------------------------------------------
    c        2     50     30   cc-pVTZ   [4s3p2d1f|18s5p2d1f]
    h        4     16     14   cc-pVTZ   [3s2p1d|5s2p1d]
   ---------------------------------------------------------------------------
   total:    6    164    116
   ---------------------------------------------------------------------------

   total number of primitive shells          :   34
   total number of contracted shells         :   44
   total number of cartesian basis functions :  130
   total number of SCF-basis functions       :  116


 integral neglect threshold       :  0.26E-12
 integral storage threshold THIZE :  0.10E-04
 integral storage threshold THIME :         5

 RI-J AUXILIARY BASIS SET information:

              we will work with the 1s 3p 5d 7f 9g ... basis set
              ...i.e. with spherical basis functions...

   type   atoms  prim   cont   basis
   ---------------------------------------------------------------------------
    c        2     70     49   cc-pVTZ   [6s4p3d1f1g|12s5p4d2f1g]
    h        4     16     11   cc-pVTZ   [3s1p1d|5s2p1d]
   ---------------------------------------------------------------------------
   total:    6    204    142
   ---------------------------------------------------------------------------

   total number of primitive shells          :   32
   total number of contracted shells         :   50
   total number of cartesian basis functions :  170
   total number of SCF-basis functions       :  142


 symmetry group of the molecule :   c1 

 the group has the following generators :
   c1(z)

    1 symmetry operations found

 there are 1 real representations :   a   

 maximum number of shells which are related by symmetry :  1


    mo occupation :
   irrep   mo's   occupied
    a      116        8
 
 number of basis functions   :                    116
 number of occupied orbitals :                      8
 
  
           ------------------
           density functional
           ------------------
 PBE functional
 exchange:    LDA + PBE
 correlation: LDA (PW) + PBE

 iterations will be done with small grid
  
 spherical integration : Lebedev's spherical grid
 spherical gridsize    :                     5
    i.e. gridpoints    :                   590
 value for diffuse not defined
 radial integration    : Chebyshev 2nd kind (scaling 3)
 radial gridsize       :                     8
 integration cells     :                     6
 partition function    : becke
 partition sharpness   :                     3
  

 biggest AO integral is expected to be     3.593180334
  
           ------------------------
               RI-J - INFORMATION
           ------------------------
 Contributions to RI integral batches: 
  neglected integral batches:                     0
  direct contribution:                            0
  memory contribution:                   990
 Memory core needed for (P|Q) and Cholesky      1 MByte
 Memory core minimum needed except of (P|Q)     1 MByte
 Total minimum memory core needed (sum)         1 MByte
  
 ****************************************
 Memory allocated for RI-J    12 MByte
 ****************************************
                                            

          ------------------------
          nuclear repulsion energy  :   33.4239180667    
          ------------------------


         -----------------
         -S,T+V- integrals
         -----------------

 1e-integrals will be neglected if expon. factor < 0.257074E-13
 Difference densities >>NOT<< switched on in parallel ridft!

 DIIS switched on: error vector is FDS-SDF
 Max. Iterations for DIIS is     :   4
 DIIS matrix (see manual) 
    Scaling factor of diagonals  :  1.200
    threshold for scaling factor :  0.000

 scf convergence criterion : increment of total energy < .1000000D-08
                  and increment of one-electron energy < .1000000D-05

  MOs are in ASCII format !


 automatic virtual orbital shift switched on 
      shift if e(lumo)-e(homo) < 0.10000000    


 reading orbital data $scfmo  from file mos
 orbital characterization : expanded
 mo provided and orthogonalized by Cholesky decomposition

 DSCF restart information will be dumped onto file mos


 Starting SCF iterations

          Overall gridpoints after grid construction =         27138

 ITERATION  ENERGY          1e-ENERGY        2e-ENERGY     RMS[dD(SAO)]   TOL
   1  -78.198161577972    -167.14160877     55.519529128    0.000D+00 0.256D-12
                            Exc = -11.7279733491     Coul =  67.2475024770    
                              N = 16.000017661    
                            current damping = 0.700
 
          max. resid. norm for Fia-block=  2.401D-01 for orbital      3a         
          max. resid. fock norm         =  4.483D+00 for orbital    103a         

 ITERATION  ENERGY          1e-ENERGY        2e-ENERGY     RMS[dD(SAO)]   TOL
   2  -78.436103213396    -169.37087786     57.510856580    0.349D-02 0.256D-12
                            Exc = -12.0012554426     Coul =  69.5121120228    
                              N = 16.000013270    
                            current damping = 0.650
 
          Norm of current diis error:  1.1399    
          max. resid. norm for Fia-block=  1.065D-01 for orbital      1a         
          max. resid. fock norm         =  1.179D-01 for orbital      3a         

 ITERATION  ENERGY          1e-ENERGY        2e-ENERGY     RMS[dD(SAO)]   TOL
   3  -78.483268325116    -169.86993011     57.962743717    0.207D-02 0.256D-12
                            Exc = -12.0866775669     Coul =  70.0494212840    
                              N = 16.000011104    
                            current damping = 0.500
 
          Norm of current diis error: 0.53937    
          max. resid. norm for Fia-block=  4.409D-02 for orbital      3a         
          max. resid. fock norm         =  5.081D-02 for orbital      3a         

 ITERATION  ENERGY          1e-ENERGY        2e-ENERGY     RMS[dD(SAO)]   TOL
   4  -78.497144977297    -170.29981377     58.378750729    0.128D-02 0.256D-12
                            Exc = -12.1508957194     Coul =  70.5296464488    
                              N = 16.000009944    
                            current damping = 0.350
 
          Norm of current diis error: 0.18380    
          max. resid. norm for Fia-block=  1.575D-02 for orbital      3a         
          max. resid. fock norm         =  1.791D-02 for orbital      3a         

 ITERATION  ENERGY          1e-ENERGY        2e-ENERGY     RMS[dD(SAO)]   TOL
   5  -78.499165590117    -170.40338530     58.480301643    0.608D-03 0.256D-12
                            Exc = -12.1704630425     Coul =  70.6507646853    
                              N = 16.000009781    
                            current damping = 0.200
 
          Norm of current diis error: 0.53781E-01
          max. resid. norm for Fia-block=  4.190D-03 for orbital      3a         
          max. resid. fock norm         =  4.780D-03 for orbital      3a         
          mo-orthogonalization: Cholesky decomposition

 ITERATION  ENERGY          1e-ENERGY        2e-ENERGY     RMS[dD(SAO)]   TOL
   6  -78.499351801573    -170.47336042     58.550090555    0.215D-03 0.256D-12
                            Exc = -12.1800740710     Coul =  70.7301646263    
                              N = 16.000009714    
                            current damping = 0.050
 
          Norm of current diis error: 0.11024E-01
          max. resid. norm for Fia-block=  9.570D-04 for orbital      8a         
          max. resid. fock norm         =  1.387D-03 for orbital     26a         

 ITERATION  ENERGY          1e-ENERGY        2e-ENERGY     RMS[dD(SAO)]   TOL
   7  -78.499355963927    -170.45253485     58.529260821    0.486D-04 0.256D-12
                            Exc = -12.1785278403     Coul =  70.7077886615    
                              N = 16.000009766    
                            current damping = 0.100
 
          Norm of current diis error: 0.81469E-02
          max. resid. norm for Fia-block=  3.473D-04 for orbital      5a         
          max. resid. fock norm         =  4.432D-04 for orbital      6a         

 ITERATION  ENERGY          1e-ENERGY        2e-ENERGY     RMS[dD(SAO)]   TOL
   8  -78.499358519051    -170.46530010     58.542023518    0.170D-04 0.256D-12
                            Exc = -12.1798040400     Coul =  70.7218275580    
                              N = 16.000009746    
                            current damping = 0.150
 
          Norm of current diis error: 0.15436E-03
          max. resid. norm for Fia-block=  9.733D-06 for orbital      8a         
          max. resid. fock norm         =  1.136D-05 for orbital     17a         

 ITERATION  ENERGY          1e-ENERGY        2e-ENERGY     RMS[dD(SAO)]   TOL
   9  -78.499358520056    -170.46504249     58.541765905    0.376D-06 0.256D-12
                            Exc = -12.1797752119     Coul =  70.7215411169    
                              N = 16.000009746    
                            current damping = 0.200
 
          Norm of current diis error: 0.27084E-04
          max. resid. norm for Fia-block=  2.431D-06 for orbital      8a         
          max. resid. fock norm         =  4.973D-06 for orbital      2a         

 ITERATION  ENERGY          1e-ENERGY        2e-ENERGY     RMS[dD(SAO)]   TOL
  10  -78.499358520027    -170.46505607     58.541779479    0.124D-06 0.256D-12
                            Exc = -12.1797773363     Coul =  70.7215568155    
                              N = 16.000009746    
                            current damping = 0.250
 
          Norm of current diis error: 0.39099E-04
          max. resid. norm for Fia-block=  1.212D-06 for orbital      8a         
          max. resid. fock norm         =  2.563D-06 for orbital      2a         
          mo-orthogonalization: Cholesky decomposition

 ENERGY & DENSITY CONVERGED !

          Overall gridpoints after grid construction =         91017

 ITERATION  ENERGY          1e-ENERGY        2e-ENERGY     RMS[dD(SAO)]   TOL
  11  -78.499357967940    -170.46506086     58.541784822    0.556D-07 0.256D-12
                            Exc = -12.1797774706     Coul =  70.7215622930    
                              N = 16.000000056    
                            current damping = 0.100
 
          Norm of current diis error: 0.87175E-05
          max. resid. norm for Fia-block=  3.035D-07 for orbital      8a         
          max. resid. fock norm         =  5.824D-07 for orbital      1a         

 End of SCF iterations

   convergence criteria satisfied after    11 iterations


                  ------------------------------------------ 
                 |  total energy      =    -78.49935796794  |
                  ------------------------------------------ 
                 :  kinetic energy    =     77.99726035186  :
                 :  potential energy  =   -156.49661831980  :
                 :  virial theorem    =      1.99360379971  :
                 :  wavefunction norm =      1.00000000000  :
                  .......................................... 


 <geterg> : there is no data group $energy 


 <skperg> : $end is missing 


 orbitals $scfmo  will be written to file mos

    irrep                  4a          5a          6a          7a          8a   
 eigenvalues H         -0.52250    -0.42222    -0.37144    -0.31320    -0.24600
            eV         -14.2181    -11.4894    -10.1074     -8.5226     -6.6941
 occupation              2.0000      2.0000      2.0000      2.0000      2.0000 

    irrep                  9a         10a         11a         12a         13a   
 eigenvalues H         -0.03334     0.03984     0.06637     0.06975     0.13477
            eV          -0.9073      1.0840      1.8060      1.8980      3.6673
 
 
 
 
 ==============================================================================
                           electrostatic moments
 ==============================================================================

 reference point for electrostatic moments:    0.00000   0.00000   0.00000

 
              nuc           elec       ->  total
 ------------------------------------------------------------------------------
                          charge      
 ------------------------------------------------------------------------------
          16.000000     -16.000000      -0.000000
 
 ------------------------------------------------------------------------------
                       dipole moment  
 ------------------------------------------------------------------------------
   x       0.602272      -0.602194       0.000079
   y       0.002861      -0.002866      -0.000005
   z     105.434130    -105.435127      -0.000997
 
   | dipole moment | =     0.0010 a.u. =     0.0025 debye 
 
 ------------------------------------------------------------------------------
                     quadrupole moment
 ------------------------------------------------------------------------------
  xx      11.851767     -21.104167      -9.252400
  yy      40.542905     -49.771014      -9.228109
  zz     695.129040    -706.577730     -11.448690
  xy      -0.007165       0.007090      -0.000075
  xz       1.914364      -2.304831      -0.390467
  yz       0.014317      -0.014666      -0.000349
 
     1/3  trace=      -9.976400
     anisotropy=       2.309767
 
 ==============================================================================
 


    ------------------------------------------------------------------------
         total  cpu-time :  22.66 seconds
         total wall-time :   2.02 seconds
    ------------------------------------------------------------------------

   ****  ridft : all done  ****


    2018-04-28 20:55:33.286 

