           Doing BLAS/Lapack in the master proc. with  8 CPUs.
           SMPCPUS    set: Shared-memory Parallelization with   8 CPUs.

           SMP Parallelization Reference:
           C. van Wullen, J. Comput. Chem. 32 (2011) 1195--1201
 operating system is UNIX !

 ridft (c-18-362.gp.local) : TURBOMOLE V7.2 ( 21454 ) 4 Oct 2017 at 12:48:15
 Copyright (C) 2017 TURBOMOLE GmbH, Karlsruhe


    2018-04-24 21:13:05.439 



                                  r i d f t

                        DFT program with RI approximation 
                                for coulomb part 




                                                 
                                 References:     
                                                 
          TURBOMOLE:                             
              R. Ahlrichs, M. Baer, M. Haeser, H. Horn, and
              C. Koelmel
              Electronic structure calculations on workstation
              computers: the program system TURBOMOLE
              Chem. Phys. Lett. 162: 165 (1989)
          Density Functional:                              
              O. Treutler and R. Ahlrichs                      
              Efficient Molecular Numerical Integration Schemes
              J. Chem. Phys. 102: 346 (1995)                   
          Parallel Version:                                
              Performance of parallel TURBOMOLE for Density    
              Functional Calculations                          
              M. v. Arnim and R. Ahlrichs                      
              J. Comp. Chem. 19: 1746 (1998)                   
          RI-J Method:                                     
              Auxiliary Basis Sets to approximate Coulomb      
              Potentials                                       
              Chem. Phys. Lett. 240: 283 (1995)                
              K. Eichkorn, O. Treutler, H. Oehm, M. Haeser     
              and R. Ahlrichs                                  
              Chem. Phys. Lett. 242: 652 (1995)                
                                                           
              Auxiliary Basis Sets for Main Row Atoms and their
              Use to approximate Coulomb Potentials            
              K. Eichkorn, F. Weigend, O. Treutler and         
              R. Ahlrichs                                      
              Theo. Chem. Acc. 97: 119 (1997)                   
                                                           
              Accurate Coulomb-fitting basis sets for H to Rn 
              F. Weigend                                        
              Phys. Chem. Chem. Phys. 8: 1057 (2006)            
                                                           
          Multipole accelerated RI-J (MARI-J):             
              Fast evaluation of the Coulomb potential for     
              electron densities using multipole accelerated   
              resolution of identity approximation             
              M. Sierka, A. Hogekamp and R. Ahlrichs           
              J. Chem. Phys. 118: 9136 (2003)                  
          RI-JK Method:                                     
              A fully direct RI-HF algorithm: Implementation,
              optimised auxiliary basis sets, demonstration of
              accuracy and efficiency                         
              F. Weigend                                      
              Phys. Chem. Chem. Phys. 4: 4285 (2002)           
          Two-component HF and DFT with spin-orbit coupling:  
              Self-consistent treatment of spin-orbit         
              interactions with efficient Hartree-Fock and    
              density functional methods                      
              M. K. Armbruster, F. Weigend, C. van Wüllen and 
              W. Klopper                                      
              Phys. Chem. Chem. Phys. 10: 1748 (2008)         
          Relativistic all-electron 2c calculations           
              An efficient implementation of two-component    
              relativistic exact-decoupling methods for large 
              molecules                                       
              D. Peng, N. Middendorf, F. Weigend, M. Reiher   
              J. Chem. Phys. 138, 184105 (2013)               
                                         




              +--------------------------------------------------+
              |      general information about current run       |
              +--------------------------------------------------+

 

 DENSITY CONVERGENCE CHECK SWITCHED ON !
 SCF CONVERGENCE IF RMS(delta[D]) <     0.1000000000E-06

 PBE functional
 exchange:    LDA + PBE
 correlation: LDA (PW) + PBE
 A DFT calculation using the RI-J approximation will be carried out.
 Allocatable memory for RI due to $ricore (MB):                   500


              +--------------------------------------------------+
              | Atomic coordinate, charge and isotop information |
              +--------------------------------------------------+

                    atomic coordinates            atom    charge  isotop
         -1.14553187    0.10558668    1.11305796    c      6.000     0
         -3.15213248    0.10540182    1.11307065    h      1.000     0
          1.14488817    0.10495703    1.11355182    c      6.000     0
          3.15145502    0.10367658    1.11442430    h      1.000     0
         -4.78177039   -0.65659669    7.97183645    c      6.000     0
         -4.79758103   -1.90750758    6.33455772    h      1.000     0
         -4.87988181   -1.84007399    9.65480911    h      1.000     0
         -6.48708688    0.49406522    7.90992595    h      1.000     0
         -2.39970989    0.95836462    7.99275434    c      6.000     0
         -2.43117698    2.23014884    9.61869194    h      1.000     0
         -2.35196220    2.15685919    6.31317310    h      1.000     0
          0.00008851   -0.62585138    8.06920384    c      6.000     0
          0.00009368   -1.79330462    9.77574256    h      1.000     0
          0.00021530   -1.92654828    6.46437057    h      1.000     0
          2.39984900    0.95844979    7.99291851    c      6.000     0
          2.43127104    2.23017333    9.61887913    h      1.000     0
          2.35233200    2.15686179    6.31332767    h      1.000     0
          4.78189130   -0.65657929    7.97223278    c      6.000     0
          4.79772676   -1.90754540    6.33501360    h      1.000     0
          6.48714004    0.49413418    7.91038892    h      1.000     0
          4.87981167   -1.83995364    9.65528627    h      1.000     0
 
       center of nuclear mass  :   -0.00003380    0.01027140    6.17266054
       center of nuclear charge:   -0.00002762   -0.00202907    6.27651778

              +--------------------------------------------------+
              |               basis set information              |
              +--------------------------------------------------+

              we will work with the 1s 3p 5d 7f 9g ... basis set
              ...i.e. with spherical basis functions...

   type   atoms  prim   cont   basis
   ---------------------------------------------------------------------------
    c        7     50     30   cc-pVTZ   [4s3p2d1f|18s5p2d1f]
    h       14     16     14   cc-pVTZ   [3s2p1d|5s2p1d]
   ---------------------------------------------------------------------------
   total:   21    574    406
   ---------------------------------------------------------------------------

   total number of primitive shells          :   34
   total number of contracted shells         :  154
   total number of cartesian basis functions :  455
   total number of SCF-basis functions       :  406


 integral neglect threshold       :  0.73E-13
 integral storage threshold THIZE :  0.10E-04
 integral storage threshold THIME :         5

 RI-J AUXILIARY BASIS SET information:

              we will work with the 1s 3p 5d 7f 9g ... basis set
              ...i.e. with spherical basis functions...

   type   atoms  prim   cont   basis
   ---------------------------------------------------------------------------
    c        7     70     49   cc-pVTZ   [6s4p3d1f1g|12s5p4d2f1g]
    h       14     16     11   cc-pVTZ   [3s1p1d|5s2p1d]
   ---------------------------------------------------------------------------
   total:   21    714    497
   ---------------------------------------------------------------------------

   total number of primitive shells          :   32
   total number of contracted shells         :  175
   total number of cartesian basis functions :  595
   total number of SCF-basis functions       :  497


 symmetry group of the molecule :   c1 

 the group has the following generators :
   c1(z)

    1 symmetry operations found

 there are 1 real representations :   a   

 maximum number of shells which are related by symmetry :  1


    mo occupation :
   irrep   mo's   occupied
    a      406       28
 
 number of basis functions   :                    406
 number of occupied orbitals :                     28
 
  
           ------------------
           density functional
           ------------------
 PBE functional
 exchange:    LDA + PBE
 correlation: LDA (PW) + PBE

 iterations will be done with small grid
  
 spherical integration : Lebedev's spherical grid
 spherical gridsize    :                     5
    i.e. gridpoints    :                   590
 value for diffuse not defined
 radial integration    : Chebyshev 2nd kind (scaling 3)
 radial gridsize       :                     8
 integration cells     :                    21
 partition function    : becke
 partition sharpness   :                     3
  

 biggest AO integral is expected to be     3.593180334
  
           ------------------------
               RI-J - INFORMATION
           ------------------------
 Contributions to RI integral batches: 
  neglected integral batches:                  1504
  direct contribution:                            0
  memory contribution:                 10431
 Memory core needed for (P|Q) and Cholesky      2 MByte
 Memory core minimum needed except of (P|Q)     1 MByte
 Total minimum memory core needed (sum)         3 MByte
  
 ****************************************
 Memory allocated for RI-J   401 MByte
 ****************************************
                                            

          ------------------------
          nuclear repulsion energy  :   285.696973710    
          ------------------------


         -----------------
         -S,T+V- integrals
         -----------------

 1e-integrals will be neglected if expon. factor < 0.734497E-14
 Difference densities >>NOT<< switched on in parallel ridft!

 DIIS switched on: error vector is FDS-SDF
 Max. Iterations for DIIS is     :   4
 DIIS matrix (see manual) 
    Scaling factor of diagonals  :  1.200
    threshold for scaling factor :  0.000

 scf convergence criterion : increment of total energy < .1000000D-08
                  and increment of one-electron energy < .1000000D-05

  MOs are in ASCII format !


 automatic virtual orbital shift switched on 
      shift if e(lumo)-e(homo) < 0.10000000    


 reading orbital data $scfmo  from file mos
 orbital characterization : expanded
 mo provided and orthogonalized by Cholesky decomposition

 DSCF restart information will be dumped onto file mos


 Starting SCF iterations

          Overall gridpoints after grid construction =         92101

 ITERATION  ENERGY          1e-ENERGY        2e-ENERGY     RMS[dD(SAO)]   TOL
   1  -273.81043666543    -922.71952067     363.21211030    0.000D+00 0.733D-13
                            Exc = -41.3099221364     Coul =  404.522032435    
                              N = 56.000368290    
                            current damping = 0.700
 
          max. resid. norm for Fia-block=  2.862D-01 for orbital      4a         
          max. resid. fock norm         =  4.722D+00 for orbital    393a         

 ITERATION  ENERGY          1e-ENERGY        2e-ENERGY     RMS[dD(SAO)]   TOL
   2  -274.58374105539    -930.58823409     370.30751933    0.234D-02 0.733D-13
                            Exc = -42.1824051590     Coul =  412.489924487    
                              N = 56.000303260    
                            current damping = 0.650
 
          Norm of current diis error:  2.0770    
          max. resid. norm for Fia-block=  1.364D-01 for orbital      2a         
          max. resid. fock norm         =  1.433D-01 for orbital      2a         

 ITERATION  ENERGY          1e-ENERGY        2e-ENERGY     RMS[dD(SAO)]   TOL
   3  -274.73766832293    -932.18573294     371.75109091    0.132D-02 0.733D-13
                            Exc = -42.4486619857     Coul =  414.199752893    
                              N = 56.000267144    
                            current damping = 0.550
 
          Norm of current diis error: 0.99609    
          max. resid. norm for Fia-block=  5.525D-02 for orbital      2a         
          max. resid. fock norm         =  5.833D-02 for orbital      9a         

 ITERATION  ENERGY          1e-ENERGY        2e-ENERGY     RMS[dD(SAO)]   TOL
   4  -274.78165724429    -933.75444643     373.27581547    0.721D-03 0.733D-13
                            Exc = -42.6491511990     Coul =  415.924966674    
                              N = 56.000244363    
                            current damping = 0.450
 
          Norm of current diis error: 0.36393    
          max. resid. norm for Fia-block=  2.032D-02 for orbital      9a         
          max. resid. fock norm         =  2.299D-02 for orbital      9a         

 ITERATION  ENERGY          1e-ENERGY        2e-ENERGY     RMS[dD(SAO)]   TOL
   5  -274.78868299231    -934.01418357     373.52852687    0.391D-03 0.733D-13
                            Exc = -42.7085457960     Coul =  416.237072665    
                              N = 56.000235229    
                            current damping = 0.300
 
          Norm of current diis error: 0.13493    
          max. resid. norm for Fia-block=  6.943D-03 for orbital     14a         
          max. resid. fock norm         =  7.210D-03 for orbital      9a         
          mo-orthogonalization: Cholesky decomposition

 ITERATION  ENERGY          1e-ENERGY        2e-ENERGY     RMS[dD(SAO)]   TOL
   6  -274.78962455143    -934.38694012     373.90034185    0.167D-03 0.733D-13
                            Exc = -42.7471249181     Coul =  416.647466773    
                              N = 56.000230979    
                            current damping = 0.150
 
          Norm of current diis error: 0.47881E-01
          max. resid. norm for Fia-block=  1.934D-03 for orbital     24a         
          max. resid. fock norm         =  2.983D-03 for orbital     77a         

 ITERATION  ENERGY          1e-ENERGY        2e-ENERGY     RMS[dD(SAO)]   TOL
   7  -274.78970856522    -934.27951427     373.79283200    0.708D-04 0.733D-13
                            Exc = -42.7447838141     Coul =  416.537615813    
                              N = 56.000230371    
                            current damping = 0.200
 
          Norm of current diis error: 0.23386E-01
          max. resid. norm for Fia-block=  6.414D-04 for orbital     19a         
          max. resid. fock norm         =  9.795D-04 for orbital     26a         

 ITERATION  ENERGY          1e-ENERGY        2e-ENERGY     RMS[dD(SAO)]   TOL
   8  -274.78972677230    -934.32295804     373.83625756    0.150D-04 0.733D-13
                            Exc = -42.7474183530     Coul =  416.583675915    
                              N = 56.000230154    
                            current damping = 0.250
 
          Norm of current diis error: 0.43741E-02
          max. resid. norm for Fia-block=  2.007D-04 for orbital     20a         
          max. resid. fock norm         =  2.591D-04 for orbital     11a         

 ITERATION  ENERGY          1e-ENERGY        2e-ENERGY     RMS[dD(SAO)]   TOL
   9  -274.78972717449    -934.33261063     373.84590974    0.368D-05 0.733D-13
                            Exc = -42.7483526945     Coul =  416.594262435    
                              N = 56.000230093    
                            current damping = 0.100
 
          Norm of current diis error: 0.27528E-02
          max. resid. norm for Fia-block=  6.763D-05 for orbital     20a         
          max. resid. fock norm         =  8.872D-05 for orbital     11a         

 ITERATION  ENERGY          1e-ENERGY        2e-ENERGY     RMS[dD(SAO)]   TOL
  10  -274.78972741071    -934.32966276     373.84296164    0.157D-05 0.733D-13
                            Exc = -42.7480823073     Coul =  416.591043945    
                              N = 56.000230101    
                            current damping = 0.150
 
          Norm of current diis error: 0.73585E-03
          max. resid. norm for Fia-block=  5.120D-05 for orbital     27a         
          max. resid. fock norm         =  1.085D-04 for orbital      2a         
          mo-orthogonalization: Cholesky decomposition

 ITERATION  ENERGY          1e-ENERGY        2e-ENERGY     RMS[dD(SAO)]   TOL
  11  -274.78972738206    -934.32920066     373.84249956    0.844D-06 0.733D-13
                            Exc = -42.7480442638     Coul =  416.590543827    
                              N = 56.000230102    
                            current damping = 0.200
 
          Norm of current diis error: 0.11158E-02
          max. resid. norm for Fia-block=  2.348D-05 for orbital     27a         
          max. resid. fock norm         =  4.981D-05 for orbital      2a         

 ITERATION  ENERGY          1e-ENERGY        2e-ENERGY     RMS[dD(SAO)]   TOL
  12  -274.78972742881    -934.32910644     373.84240530    0.372D-06 0.733D-13
                            Exc = -42.7480376366     Coul =  416.590442935    
                              N = 56.000230102    
                            current damping = 0.050
 
          Norm of current diis error: 0.31381E-03
          max. resid. norm for Fia-block=  9.339D-06 for orbital     27a         
          max. resid. fock norm         =  1.890D-05 for orbital      2a         

 ITERATION  ENERGY          1e-ENERGY        2e-ENERGY     RMS[dD(SAO)]   TOL
  13  -274.78972743266    -934.32948806     373.84278692    0.180D-06 0.733D-13
                            Exc = -42.7480675522     Coul =  416.590854473    
                              N = 56.000230101    
                            current damping = 0.100
 
          Norm of current diis error: 0.65239E-04
          max. resid. norm for Fia-block=  1.894D-06 for orbital     24a         
          max. resid. fock norm         =  2.855D-06 for orbital     26a         

 DENSITY CONVERGED !


 ITERATION  ENERGY          1e-ENERGY        2e-ENERGY     RMS[dD(SAO)]   TOL
  14  -274.78972743276    -934.32923678     373.84253564    0.609D-07 0.733D-13
                            Exc = -42.7480490103     Coul =  416.590584652    
                              N = 56.000230101    
                            current damping = 0.150
 
          Norm of current diis error: 0.41273E-04
          max. resid. norm for Fia-block=  1.057D-06 for orbital     26a         
          max. resid. fock norm         =  1.611D-06 for orbital     26a         

 DENSITY CONVERGED !


 ITERATION  ENERGY          1e-ENERGY        2e-ENERGY     RMS[dD(SAO)]   TOL
  15  -274.78972743281    -934.32935196     373.84265082    0.300D-07 0.733D-13
                            Exc = -42.7480570500     Coul =  416.590707868    
                              N = 56.000230101    
                            current damping = 0.200
 
          Norm of current diis error: 0.69625E-05
          max. resid. norm for Fia-block=  2.744D-07 for orbital     15a         
          max. resid. fock norm         =  3.698D-07 for orbital    206a         
          mo-orthogonalization: Cholesky decomposition

 ENERGY & DENSITY CONVERGED !

          Overall gridpoints after grid construction =        307018

 ITERATION  ENERGY          1e-ENERGY        2e-ENERGY     RMS[dD(SAO)]   TOL
  16  -274.78968072779    -934.32934939     373.84269495    0.498D-08 0.733D-13
                            Exc = -42.7480104770     Coul =  416.590705431    
                              N = 56.000000458    
                            current damping = 0.250
 
          Norm of current diis error: 0.22599E-05
          max. resid. norm for Fia-block=  1.222D-07 for orbital     15a         
          max. resid. fock norm         =  1.595D-07 for orbital     15a         

 End of SCF iterations

   convergence criteria satisfied after    16 iterations


                  ------------------------------------------ 
                 |  total energy      =   -274.78968072779  |
                  ------------------------------------------ 
                 :  kinetic energy    =    272.99987029165  :
                 :  potential energy  =   -547.78955101944  :
                 :  virial theorem    =      1.99348661700  :
                 :  wavefunction norm =      1.00000000000  :
                  .......................................... 


 <geterg> : there is no data group $energy 


 <skperg> : $end is missing 


 orbitals $scfmo  will be written to file mos

    irrep                 24a         25a         26a         27a         28a   
 eigenvalues H         -0.28320    -0.27607    -0.27240    -0.26197    -0.26163
            eV          -7.7064     -7.5124     -7.4125     -7.1285     -7.1193
 occupation              2.0000      2.0000      2.0000      2.0000      2.0000 

    irrep                 29a         30a         31a         32a         33a   
 eigenvalues H         -0.01585    -0.01271     0.02292     0.02297     0.04582
            eV          -0.4314     -0.3457      0.6236      0.6250      1.2469
 
 
 
 
 ==============================================================================
                           electrostatic moments
 ==============================================================================

 reference point for electrostatic moments:    0.00000   0.00000   0.00000

 
              nuc           elec       ->  total
 ------------------------------------------------------------------------------
                          charge      
 ------------------------------------------------------------------------------
          56.000000     -56.000000      -0.000000
 
 ------------------------------------------------------------------------------
                       dipole moment  
 ------------------------------------------------------------------------------
   x      -0.001547       0.001525      -0.000021
   y      -0.113628       0.148500       0.034872
   z     351.484996    -351.544371      -0.059375
 
   | dipole moment | =     0.0689 a.u. =     0.1750 debye 
 
 ------------------------------------------------------------------------------
                     quadrupole moment
 ------------------------------------------------------------------------------
  xx     579.816802    -612.557437     -32.740635
  yy      59.416558     -96.149632     -36.733074
  zz    2731.241438   -2767.730387     -36.488949
  xy      -0.007304       0.006220      -0.001084
  xz       0.047632      -0.046591       0.001041
  yz     -11.278777      11.549955       0.271177
 
     1/3  trace=     -35.320886
     anisotropy=       3.904502
 
 ==============================================================================
 


    ------------------------------------------------------------------------
         total  cpu-time :  2 minutes and 56 seconds
         total wall-time :  20.81 seconds
    ------------------------------------------------------------------------

   ****  ridft : all done  ****


    2018-04-24 21:13:26.236 

