
   OpenMP run-time library returned nthreads = 28

 ricc2 (c-13-33) : TURBOMOLE V7.3 ( 22142 ) 4 Jul 2018 at 18:12:42
 Copyright (C) 2018 TURBOMOLE GmbH, Karlsruhe


    2019-04-01 22:33:27.366 



                              R I C C 2 - PROGRAM

                          the quantum chemistry groups
                             at the universities in
                           Karlsruhe, Bochum & Mainz
                                   Germany



   *-----------------------------------------------------------------------*
   |                     program will use 28 thread(s)                     |
   *-----------------------------------------------------------------------*


              +--------------------------------------------------+
              | Atomic coordinate, charge and isotop information |
              +--------------------------------------------------+

                    atomic coordinates            atom    charge  isotop
         -0.09613728   -1.85208518    0.06417924    n      0.000     0
         -0.10057510   -3.76186599    0.09414931    h      0.000     0
         -2.47329843   -0.68384725    0.00760796    c      0.000     0
         -4.39780845   -1.95124602   -0.01101496    o      0.000     0
         -2.33724822    2.05611329   -0.02310077    c      0.000     0
         -4.06808709    3.12080795   -0.10350867    h      0.000     0
         -0.06650765    3.20844476    0.06369290    c      0.000     0
          0.13297314    5.23921987    0.06024870    h      0.000     0
          2.14394934    1.87136273    0.17356117    n      0.000     0
          3.82427717    2.75290046    0.29421670    h      0.000     0
          2.25479475   -0.74045681    0.21878328    c      0.000     0
          4.22617968   -1.91086889    0.36695765    o      0.000     0
          1.37195489    0.04734424    6.42164927    c      6.000     0
          2.34916579   -1.59858435    5.70879432    h      1.000     0
          2.51639383    1.53454745    7.22915634    h      1.000     0
         -1.13906879    0.23743264    6.32858606    c      6.000     0
         -2.29558664   -1.25068812    5.54075788    h      1.000     0
         -2.10627785    1.88351561    7.05424046    h      1.000     0
 
       center of nuclear mass  :   -0.01789386   -0.02848642    1.36618375
       center of nuclear charge:    0.11631323    0.14234074    6.37714756

              +--------------------------------------------------+
              |               basis set information              |
              +--------------------------------------------------+

              we will work with the 1s 3p 5d 7f 9g ... basis set
              ...i.e. with spherical basis functions...

   type   atoms  prim   cont   basis
   ---------------------------------------------------------------------------
    n        2     77     55   cc-pVQZ   [5s4p3d2f1g|21s6p3d2f1g]
    h        8     32     30   cc-pVQZ   [4s3p2d1f|6s3p2d1f]
    c        6     77     55   cc-pVQZ   [5s4p3d2f1g|21s6p3d2f1g]
    o        2     77     55   cc-pVQZ   [5s4p3d2f1g|21s6p3d2f1g]
   ---------------------------------------------------------------------------
   total:   18   1026    790
   ---------------------------------------------------------------------------

   total number of primitive shells          :  111
   total number of contracted shells         :  230
   total number of cartesian basis functions :  980
   total number of SCF-basis functions       :  790


 symmetry group of the molecule :   c1 

 the group has the following generators :
   c1(z)

    1 symmetry operations found

 there are 1 real representations :   a   


   =========================================================================


     restricted closed shell calculation for the wavefunction models:
               MP2        - Second Order Moeller Plesset PT


     global parameters for ricc2 program:

        hard restart (reuse of interm.) :  disabled
        soft restart (reuse of vectors) :  disabled
        threshold for vector function   :    0.100000E-05
        convergence threshold energy    :    0.100000E-06
        linear dependence threshold     :    0.100000E-13
        global print level              :      1
        maximum number of iterations    :   300
        maximum number DIIS vectors     :    10
        max. dim. of reduced space      :   100
        core memory limit (MB)          : *****


     MP2 energy only: Energy will be calculated directly from T2 amplitudes!

     Scratch Directory : 


   =========================================================================

    der. integral neglect threshold  :  0.10E-07
    integral neglect threshold       :  0.34E-11
    integral storage threshold THIZE :  0.10E-04
    integral storage threshold THIME :         5


                  +------------------------------------------+
                  |     Auxiliary basis set information      |
                  +------------------------------------------+

              we will work with the 1s 3p 5d 7f 9g ... basis set
              ...i.e. with spherical basis functions...

   type   atoms  prim   cont   basis
   ---------------------------------------------------------------------------
    n        2    132    132   cc-pVQZ   [8s7p6d5f3g1h|8s7p6d5f3g1h]
    h        8     55     55   cc-pVQZ   [5s4p3d2f1g|5s4p3d2f1g]
    c        6    132    132   cc-pVQZ   [8s7p6d5f3g1h|8s7p6d5f3g1h]
    o        2    132    132   cc-pVQZ   [8s7p6d5f3g1h|8s7p6d5f3g1h]
   ---------------------------------------------------------------------------
   total:   18   1760   1760
   ---------------------------------------------------------------------------

   total number of primitive shells          :  105
   total number of contracted shells         :  420
   total number of cartesian basis functions : 2370
   total number of SCF-basis functions       : 1760


 maximum number of shells which are related by symmetry :  1


 The symmetry information takes   1 MB

*---------------------------------------------------------------------*
|               simplified C1 algorithm will be applied               |
*---------------------------------------------------------------------*
  MOs are in ASCII format !


 reading orbital data $scfmo  from file mos
 orbital characterization : scfconv=9



              +--------------------------------------------+
              | list of orbitals that will be kept frozen: |
              +--------------------------------------------+
              |   irrep   index      energy     occ/vir    |
              +--------------------------------------------+
              |   a         1      -11.2300     occupied   |
              |   a         2      -11.2283     occupied   |
              +--------------------------------------------+



   Molecular Orbital Statistic:
   ============================

   -----------------------------
   orbitals in total:
   -----------------------------
    frozen occupied :      2
    active occupied :      6
    active virtual  :    782
    frozen virtual  :      0
    all together    :    790
   -----------------------------


     time in riccmos       cpu:  9.22 sec    wall:  0.85 sec    ratio: 10.9

     total memory allocated for calculation of (Q|P)**(-1/2) : 36 MiB


     calculation of (P|Q) ...
     time in lp2sym        cpu:  3.51 sec    wall:  0.13 sec    ratio: 27.8


     calculation of the Cholesky decomposition of (P|Q)**(-1) ...
     time in invmetri      cpu: 15.12 sec    wall:  0.58 sec    ratio: 25.9

   threshold for RMS(d[D]) in SCF was     :  0.10E-06
   integral neglect threshold             :  0.34E-11
   derivative integral neglect threshold  :  0.10E-07


   =========================================================================

     Energy of reference wave function is   -78.0691900075200
     Maximum orbital residual is           0.2492109290283E-06


     Number of symmetry-nonredundant auxiliary basis functions:     1760

     Block lengths for integral files:
        frozen occupied (BOI):        1 MiB
        active occupied (BJI):        1 MiB
        active virtual  (BAI):       11 MiB
        frozen virtual  (BGI):        0 MiB
               general  (BTI):       11 MiB

   =========================================================================




   **************************************************************************
   *                                                                        *
   *          OPTIMIZATION OF THE GROUND STATE CLUSTER AMPLITUDES           *
   *                                                                        *
   **************************************************************************


   Iter.   MP2 energy       Norm(Omega)   Norm(t1)  Norm(t2)     cpu    wall
   ...........................................................................
    1    -78.4254878144     ------          0.00000   0.20821    0.45    0.02
   ...........................................................................


     time in total         cpu: 27.26 sec    wall:  0.99 sec    ratio: 27.6


     **********************************************************************
     *                                                                    *
     *   RHF  energy                             :    -78.0691900075      *
     *   MP2 correlation energy (doubles)        :     -0.3562978069      *
     *                                                                    *
     *   Final MP2 energy                        :    -78.4254878144      *
     *                                                                    *
     *    E(S)   =     -0.2462756747      E(T)   =     -0.1100221322      *
     *    E(OS)  =     -0.2829497187      E(SS)  =     -0.0733480881      *
     *                                                                    *
     *   SCS-MP2 energy                          :    -78.4331790327      *
     *   (computed with  C(OS) =   1.2000  and  C(SS) =   0.3333)         *
     *                                                                    *
     *   SOS-MP2 energy                          :    -78.4370246419      *
     *   (computed with  C(OS) =   1.3000)                                *
     *                                                                    *
     *   Norm of MP1 T2 amplitudes               :      0.2082066136      *
     *                                                                    *
     **********************************************************************



    ------------------------------------------------------------------------
         total  cpu-time :  2 minutes and 22 seconds
         total wall-time :   6.46 seconds
    ------------------------------------------------------------------------

   ****  ricc2 : all done  ****


    2019-04-01 22:33:33.779 

