
   OpenMP run-time library returned nthreads = 28
 operating system is UNIX !

 dscf (c-13-32) : TURBOMOLE V7.3 ( 22142 ) 4 Jul 2018 at 18:12:42
 Copyright (C) 2018 TURBOMOLE GmbH, Karlsruhe


    2019-03-25 11:22:18.226 



                             d s c f - program

                   idea & directorship : reinhart ahlrichs
                   program development : marco haeser
                                         michael baer
                           dft version : oliver treutler


                          quantum chemistry group
                          universitaet  karlsruhe
                                  germany




                          References             
                                                 
          TURBOMOLE:                             
              R. Ahlrichs, M. Baer, M. Haeser, H. Horn, and
              C. Koelmel
              Electronic structure calculations on workstation
              computers: the program system TURBOMOLE
              Chem. Phys. Lett. 162: 165 (1989)
          Density Functional:                              
              O. Treutler and R. Ahlrichs                      
              Efficient Molecular Numerical Integration Schemes
              J. Chem. Phys. 102: 346 (1995)                   
          Parallel Version:                                
              Performance of parallel TURBOMOLE for Density    
              Functional Calculations                          
              M. v. Arnim and R. Ahlrichs                      
              J. Comp. Chem. 19: 1746 (1998)                   
                                         




              +--------------------------------------------------+
              | Atomic coordinate, charge and isotop information |
              +--------------------------------------------------+

                    atomic coordinates            atom    charge  isotop
         12.07912944   15.52410018   67.70888734    n      7.000     0
         13.54177747   13.46240897   67.12118251    c      6.000     0
         13.13737608   11.49709379   68.53280794    n      7.000     0
         11.23253213   12.26054315   70.17875940    c      6.000     0
         10.08735810   11.00198555   72.19509718    c      6.000     0
         10.37837592    8.85903611   72.95665681    o      8.000     0
          8.30534635   12.58746577   73.45554451    n      7.000     0
          7.71008262   15.03844057   72.86594996    c      6.000     0
          6.03956472   16.29699817   74.30781100    n      7.000     0
          8.75321145   16.23652693   70.91386286    n      7.000     0
         10.54656155   14.74553301   69.69687923    c      6.000     0
         12.01865821   17.22485370   66.83961332    h      1.000     0
          7.37938055   11.71819175   74.95220761    h      1.000     0
         14.91749809   13.54933637   65.60940161    h      1.000     0
          5.66539895   18.09601745   73.80325412    h      1.000     0
          5.23265166   15.52032073   75.88951177    h      1.000     0
         12.59502468   16.72974545   76.63406387    n      7.000     0
         14.42805902   15.56756388   75.36038845    c      6.000     0
         14.75309192   13.19406786   76.02746178    n      7.000     0
         12.97296990   12.78588702   77.90018038    c      6.000     0
         12.41739042   10.60514306   79.29857771    c      6.000     0
         13.42272472    8.47542171   79.17385579    o      8.000     0
         10.43506771   11.07190541   81.03523603    n      7.000     0
          9.27288613   13.39437883   81.39995317    c      6.000     0
          7.68551618   13.56067473   83.24810533    n      7.000     0
          9.73397931   15.39748853   80.03746063    n      7.000     0
         11.63882325   14.95340289   78.33103793    c      6.000     0
         11.89015683   18.48530103   76.36383303    h      1.000     0
          9.94940809    9.57902177   82.19363815    h      1.000     0
         15.49953374   16.50297832   73.89207125    h      1.000     0
          7.29812233   12.11881369   84.47264787    h      1.000     0
          6.75766065   15.21418510   83.45219575    h      1.000     0
         12.86336579   15.26142825   86.55512606    n      7.000     0
         14.55278095   15.34268647   84.64272322    c      6.000     0
         15.43906251   13.15249388   84.13438689    n      7.000     0
         14.35624943   11.53299859   85.85214794    c      6.000     0
         14.70395904    8.81557241   86.24332125    c      6.000     0
         16.07401049    7.31324013   84.91673351    o      8.000     0
         13.30745143    7.93684976   88.31257137    n      7.000     0
         11.72197120    9.45429984   89.73175569    c      6.000     0
         10.56923826    8.28266964   91.65927635    n      7.000     0
         11.37615132   11.91094382   89.28200087    n      7.000     0
         12.76321030   12.79344592   87.35448022    c      6.000     0
         11.85047258   16.70328929   87.29589871    h      1.000     0
         13.35469458    6.00365992   88.64516317    h      1.000     0
         14.97607960   17.06989616   83.63360946    h      1.000     0
         10.68451156    6.37026679   91.96163253    h      1.000     0
          9.28989367    9.30690120   92.63437503    h      1.000     0
 
       center of nuclear mass  :   11.73728514   12.53882133   79.06923679
       center of nuclear charge:   11.69637914   12.57116890   79.10240961

              +--------------------------------------------------+
              |               basis set information              |
              +--------------------------------------------------+

              we will work with the 1s 3p 5d 7f 9g ... basis set
              ...i.e. with spherical basis functions...

   type   atoms  prim   cont   basis
   ---------------------------------------------------------------------------
    n       15     77     55   cc-pVQZ   [5s4p3d2f1g|21s6p3d2f1g]
    c       15     77     55   cc-pVQZ   [5s4p3d2f1g|21s6p3d2f1g]
    o        3     77     55   cc-pVQZ   [5s4p3d2f1g|21s6p3d2f1g]
    h       15     32     30   cc-pVQZ   [4s3p2d1f|6s3p2d1f]
   ---------------------------------------------------------------------------
   total:   48   3021   2265
   ---------------------------------------------------------------------------

   total number of primitive shells          :  111
   total number of contracted shells         :  645
   total number of cartesian basis functions : 2835
   total number of SCF-basis functions       : 2265


 integral neglect threshold       :  0.12E-13
 integral storage threshold THIZE :  0.10E-04
 integral storage threshold THIME :         5


 DENSITY CONVERGENCE CHECK SWITCHED ON !
 SCF CONVERGENCE IF RMS(delta[D]) <     0.1000000000E-06


 symmetry group of the molecule :   c1 

 the group has the following generators :
   c1(z)

    1 symmetry operations found

 there are 1 real representations :   a   

 maximum number of shells which are related by symmetry :  1


    mo occupation :
   irrep   mo's   occupied
    a     2265      117
 
 number of basis functions   :                   2265
 number of occupied orbitals :                    117
 

 automatic virtual orbital shift switched on 
      shift if e(lumo)-e(homo) < 0.10000000    


          ------------------------
          nuclear repulsion energy  :   3453.64487574    
          ------------------------


         -----------------
         -S,T+V- integrals
         -----------------

 1e-integrals will be neglected if expon. factor < 0.117882E-14
 
   Difference densities algorithm switched on.
   The maximal number of linear combinations of
   difference densities is                    20 .

 DIIS switched on: error vector is FDS-SDF
 Max. Iterations for DIIS is     :   5
 DIIS matrix (see manual) 
    Scaling factor of diagonals  :  1.200
    threshold for scaling factor :  0.000

 scf convergence criterion : increment of total energy < .1000000D-08
                  and increment of one-electron energy < .1000000D-05

  MOs are in ASCII format !


 reading orbital data $scfmo  from file mos
 orbital characterization : scfconv=9

 DSCF restart information will be dumped onto file mos

 
                                              current damping :  0.700
 ITERATION  ENERGY          1e-ENERGY        2e-ENERGY     RMS[dD(SAO)]   TOL
   1  -1618.4221733633    -9091.1867628     4019.1197137    0.000D+00 0.118D-13
          max. resid. norm for Fia-block=  1.166D-01 for orbital      2a         
          max. resid. fock norm         =  2.484D-01 for orbital   2262a         
          Delta Eig. =    29.7852154926 eV 
 
                                              current damping :  0.650
 ITERATION  ENERGY          1e-ENERGY        2e-ENERGY     RMS[dD(SAO)]   TOL
   2  -1618.7195895362    -9086.0150669     4013.6506016    0.916D-03 0.777D-14
          Norm of current diis error:  1.4852    
          max. resid. norm for Fia-block=  5.194D-02 for orbital      2a         
          max. resid. fock norm         =  9.959D-02 for orbital   2264a         
          Delta Eig. =    13.3208317440 eV 
 
                                              current damping :  0.600
 ITERATION  ENERGY          1e-ENERGY        2e-ENERGY     RMS[dD(SAO)]   TOL
   3  -1618.7808154473    -9087.0321769     4014.6064857    0.424D-03 0.582D-14
          Norm of current diis error: 0.67577    
          max. resid. norm for Fia-block=  2.514D-02 for orbital      1a         
          max. resid. fock norm         =  3.803D-02 for orbital   2256a         
          Delta Eig. =     6.0115776036 eV 
 
                                              current damping :  0.650
 ITERATION  ENERGY          1e-ENERGY        2e-ENERGY     RMS[dD(SAO)]   TOL
   4  -1618.7959131145    -9086.5597315     4014.1189427    0.229D-03 0.516D-14
          Norm of current diis error: 0.29367    
          max. resid. norm for Fia-block=  9.216D-03 for orbital    115a         
          max. resid. fock norm         =  1.669D-02 for orbital   2088a         
          Delta Eig. =     2.1590178925 eV 
 
                                              current damping :  0.500
 ITERATION  ENERGY          1e-ENERGY        2e-ENERGY     RMS[dD(SAO)]   TOL
   5  -1618.7990304202    -9086.5392483     4014.0953421    0.761D-04 0.479D-14
          Norm of current diis error: 0.13339    
          max. resid. norm for Fia-block=  4.762D-03 for orbital     94a         
          max. resid. fock norm         =  5.479D-03 for orbital   2256a         
 mo-orthogonalization: Cholesky decomposition
          Delta Eig. =     0.8415519833 eV 
 
                                              current damping :  0.350
 ITERATION  ENERGY          1e-ENERGY        2e-ENERGY     RMS[dD(SAO)]   TOL
   6  -1618.7998722310    -9086.5082725     4014.0635245    0.434D-04 0.447D-14
          Norm of current diis error: 0.59770E-01
          max. resid. norm for Fia-block=  2.331D-03 for orbital    117a         
          max. resid. fock norm         =  2.612D-03 for orbital    126a         
          Delta Eig. =     0.3175014175 eV 
 
                                              current damping :  0.200
 ITERATION  ENERGY          1e-ENERGY        2e-ENERGY     RMS[dD(SAO)]   TOL
   7  -1618.8000987739    -9086.5045985     4014.0596240    0.199D-04 0.414D-14
          Norm of current diis error: 0.26292E-01
          max. resid. norm for Fia-block=  1.231D-03 for orbital    117a         
          max. resid. fock norm         =  1.351D-03 for orbital    126a         
          Delta Eig. =     0.0924636668 eV 
 
                                              current damping :  0.050
 ITERATION  ENERGY          1e-ENERGY        2e-ENERGY     RMS[dD(SAO)]   TOL
   8  -1618.8001576659    -9086.5011357     4014.0561023    0.939D-05 0.384D-14
          Norm of current diis error: 0.11033E-01
          max. resid. norm for Fia-block=  6.462D-04 for orbital    115a         
          max. resid. fock norm         =  6.582D-04 for orbital    115a         
          Delta Eig. =     0.0306885679 eV 
 
                                              current damping :  0.100
 ITERATION  ENERGY          1e-ENERGY        2e-ENERGY     RMS[dD(SAO)]   TOL
   9  -1618.8001707485    -9086.5051476     4014.0601012    0.424D-05 0.357D-14
          Norm of current diis error: 0.42101E-02
          max. resid. norm for Fia-block=  2.481D-04 for orbital    117a         
          max. resid. fock norm         =  2.592D-04 for orbital   2221a         
          Delta Eig. =     0.0161833304 eV 
 
                                              current damping :  0.150
 ITERATION  ENERGY          1e-ENERGY        2e-ENERGY     RMS[dD(SAO)]   TOL
  10  -1618.8001724259    -9086.5018434     4014.0567952    0.159D-05 0.343D-14
          Norm of current diis error: 0.22739E-02
          max. resid. norm for Fia-block=  1.074D-04 for orbital    115a         
          max. resid. fock norm         =  1.772D-04 for orbital   2221a         
 mo-orthogonalization: Cholesky decomposition
          Delta Eig. =     0.0102240774 eV 
 
                                              current damping :  0.200
 ITERATION  ENERGY          1e-ENERGY        2e-ENERGY     RMS[dD(SAO)]   TOL
  11  -1618.8001727752    -9086.5041391     4014.0590906    0.804D-06 0.335D-14
          Norm of current diis error: 0.10344E-02
          max. resid. norm for Fia-block=  7.003D-05 for orbital    116a         
          max. resid. fock norm         =  7.090D-05 for orbital    116a         
          Delta Eig. =     0.0023721955 eV 
 
                                              current damping :  0.250
 ITERATION  ENERGY          1e-ENERGY        2e-ENERGY     RMS[dD(SAO)]   TOL
  12  -1618.8001728818    -9086.5036421     4014.0585935    0.398D-06 0.326D-14
          Norm of current diis error: 0.47323E-03
          max. resid. norm for Fia-block=  3.964D-05 for orbital    116a         
          max. resid. fock norm         =  4.010D-05 for orbital    116a         
          Delta Eig. =     0.0004654095 eV 
 
                                              current damping :  0.300
 ITERATION  ENERGY          1e-ENERGY        2e-ENERGY     RMS[dD(SAO)]   TOL
  13  -1618.8001729088    -9086.5036996     4014.0586509    0.239D-06 0.318D-14
          Norm of current diis error: 0.21938E-03
          max. resid. norm for Fia-block=  2.032D-05 for orbital    116a         
          max. resid. fock norm         =  2.050D-05 for orbital    116a         
          Delta Eig. =     0.0002225778 eV 
 
                                              current damping :  0.350
 ITERATION  ENERGY          1e-ENERGY        2e-ENERGY     RMS[dD(SAO)]   TOL
  14  -1618.8001729146    -9086.5036692     4014.0586205    0.110D-06 0.311D-14
          Norm of current diis error: 0.96973E-04
          max. resid. norm for Fia-block=  9.237D-06 for orbital    116a         
          max. resid. fock norm         =  9.316D-06 for orbital    116a         
          Delta Eig. =     0.0001681489 eV 

 DENSITY CONVERGED !

 
                                              current damping :  0.400
 ITERATION  ENERGY          1e-ENERGY        2e-ENERGY     RMS[dD(SAO)]   TOL
  15  -1618.8001729157    -9086.5036818     4014.0586331    0.474D-07 0.306D-14
          Norm of current diis error: 0.43895E-04
          max. resid. norm for Fia-block=  3.932D-06 for orbital    116a         
          max. resid. fock norm         =  3.957D-06 for orbital    116a         
 mo-orthogonalization: Cholesky decomposition
          Delta Eig. =     0.0000456383 eV 

 DENSITY CONVERGED !

 
                                              current damping :  0.450
 ITERATION  ENERGY          1e-ENERGY        2e-ENERGY     RMS[dD(SAO)]   TOL
  16  -1618.8001729159    -9086.5036635     4014.0586148    0.191D-07 0.335D-14
          Norm of current diis error: 0.21483E-04
          max. resid. norm for Fia-block=  1.791D-06 for orbital    116a         
          max. resid. fock norm         =  1.805D-06 for orbital    116a         
          Delta Eig. =     0.0000320167 eV 

 ENERGY & DENSITY CONVERGED !

 
                                              current damping :  0.500
 ITERATION  ENERGY          1e-ENERGY        2e-ENERGY     RMS[dD(SAO)]   TOL
  17  -1618.8001729159    -9086.5036669     4014.0586182    0.909D-08 0.336D-14
          max. resid. norm for Fia-block=  4.469D-07 for orbital    116a         
          max. resid. fock norm         =  4.515D-07 for orbital    116a         

 convergence criteria satisfied after    17 iterations


                  ------------------------------------------ 
                 |  total energy      =  -1618.80017291588  |
                  ------------------------------------------ 
                 :  kinetic energy    =   1616.51903181944  :
                 :  potential energy  =  -3235.31920473533  :
                 :  virial theorem    =      1.99859084454  :
                 :  wavefunction norm =      1.00000000000  :
                  .......................................... 


 orbitals $scfmo  will be written to file mos

    irrep                113a        114a        115a        116a        117a   
 eigenvalues H         -0.39280    -0.38676    -0.30305    -0.28865    -0.27927
            eV         -10.6888    -10.5245     -8.2465     -7.8546     -7.5995
 occupation              2.0000      2.0000      2.0000      2.0000      2.0000 

    irrep                118a        119a        120a        121a        122a   
 eigenvalues H          0.06780     0.07775     0.09338     0.09860     0.10539
            eV           1.8449      2.1157      2.5410      2.6831      2.8678
 
 
 
 
 ==============================================================================
                           electrostatic moments
 ==============================================================================

 reference point for electrostatic moments:    0.00000   0.00000   0.00000

 
              nuc           elec       ->  total
 ------------------------------------------------------------------------------
                          charge      
 ------------------------------------------------------------------------------
         234.000000    -234.000000       0.000000
 
 ------------------------------------------------------------------------------
                       dipole moment  
 ------------------------------------------------------------------------------
   x    2736.952719   -2741.637737      -4.685018
   y    2941.653523   -2937.488755       4.164768
   z   18509.963848  -18505.988383       3.975465
 
   | dipole moment | =     7.4229 a.u. =    18.8671 debye 
 
 ------------------------------------------------------------------------------
                     quadrupole moment
 ------------------------------------------------------------------------------
  xx   33516.173949  -33765.314226    -249.140278
  yy   38898.322729  -38923.109417     -24.786688
  zz 1475924.783884-1475387.029612     537.754272
  xy   33915.426199  -33911.732381       3.693819
  xz  217466.298030 -217808.538668    -342.240638
  yz  230673.834116 -230332.950061     340.884055
 
     1/3  trace=      87.942435
     anisotropy=    1092.258057
 
 ==============================================================================
 


    ------------------------------------------------------------------------
         total  cpu-time :   3 days 23 hours  2 minutes and 31 seconds
         total wall-time :  3 hours 31 minutes and 26 seconds
    ------------------------------------------------------------------------

   ****  dscf : all done  ****


    2019-03-25 14:53:44.376 

