 operating system is UNIX !
 hostname is         c-9-374.local

 ridft (c-9-374.local) : TURBOMOLE V7.0( ) 6 Jul 2015 at 18:30:05
 Copyright (C) 2015 TURBOMOLE GmbH, Karlsruhe


    2015-09-22 14:50:57.804 



                                  r i d f t

                        DFT program with RI approximation 
                                for coulomb part 




                                                 
                                 References:     
                                                 
          TURBOMOLE:                             
              R. Ahlrichs, M. Baer, M. Haeser, H. Horn, and
              C. Koelmel
              Electronic structure calculations on workstation
              computers: the program system TURBOMOLE
              Chem. Phys. Lett. 162: 165 (1989)
          Density Functional:                              
              O. Treutler and R. Ahlrichs                      
              Efficient Molecular Numerical Integration Schemes
              J. Chem. Phys. 102: 346 (1995)                   
          Parallel Version:                                
              Performance of parallel TURBOMOLE for Density    
              Functional Calculations                          
              M. v. Arnim and R. Ahlrichs                      
              J. Comp. Chem. 19: 1746 (1998)                   
          RI-J Method:                                     
              Auxiliary Basis Sets to approximate Coulomb      
              Potentials                                       
              Chem. Phys. Lett. 240: 283 (1995)                
              K. Eichkorn, O. Treutler, H. Oehm, M. Haeser     
              and R. Ahlrichs                                  
              Chem. Phys. Lett. 242: 652 (1995)                
                                                           
              Auxiliary Basis Sets for Main Row Atoms and their
              Use to approximate Coulomb Potentials            
              K. Eichkorn, F. Weigend, O. Treutler and         
              R. Ahlrichs                                      
              Theo. Chem. Acc. 97: 119 (1997)                   
                                                           
              Accurate Coulomb-fitting basis sets for H to Rn 
              F. Weigend                                        
              Phys. Chem. Chem. Phys. 8: 1057 (2006)            
                                                           
          Multipole accelerated RI-J (MARI-J):             
              Fast evaluation of the Coulomb potential for     
              electron densities using multipole accelerated   
              resolution of identity approximation             
              M. Sierka, A. Hogekamp and R. Ahlrichs           
              J. Chem. Phys. 118: 9136 (2003)                  
          RI-JK Method:                                     
              A fully direct RI-HF algorithm: Implementation,
              optimised auxiliary basis sets, demonstration of
              accuracy and efficiency                         
              F. Weigend                                      
              Phys. Chem. Chem. Phys. 4: 4285 (2002)           
          Two-component HF and DFT with spin-orbit coupling:  
              Self-consistent treatment of spin-orbit         
              interactions with efficient Hartree-Fock and    
              density functional methods                      
              M. K. Armbruster, F. Weigend, C. van Wüllen and 
              W. Klopper                                      
              Phys. Chem. Chem. Phys. 10: 1748 (2008)         
          Relativistic all-electron 2c calculations           
              An efficient implementation of two-component    
              relativistic exact-decoupling methods for large 
              molecules                                       
              D. Peng, N. Middendorf, F. Weigend, M. Reiher   
              J. Chem. Phys. 138, 184105 (2013)               
                                         


 


              +--------------------------------------------------+
              |      general information about current run       |
              +--------------------------------------------------+

 

 DENSITY CONVERGENCE CHECK SWITCHED ON !
 SCF CONVERGENCE IF RMS(delta[D]) <     0.1000000000E-06

 PBE functional
 exchange:    LDA + PBE
 correlation: LDA (PW) + PBE
 A DFT calculation using the RI-J approximation will be carried out.
 Allocatable memory for RI due to $ricore (MB):        5000


              +--------------------------------------------------+
              | Atomic coordinate, charge and isotop information |
              +--------------------------------------------------+

                    atomic coordinates            atom    charge  isotop
         -6.58065000    1.31967135    5.51157524    c      6.000     0
         -5.73286217    2.69340776    3.28916282    c      6.000     0
         -4.35712265    4.91007541    4.14082459    c      6.000     0
         -4.35825648    4.91404384    6.88593526    c      6.000     0
         -2.21895422    5.71589243    2.82540513    c      6.000     0
         -4.91663276    1.37364193    1.15165580    c      6.000     0
         -5.73074568    2.69238731    7.73444119    c      6.000     0
         -6.58065000   -1.31967135    5.51157524    c      6.000     0
         -4.91459186    1.37292383    9.86960496    c      6.000     0
         -2.22254470    5.73042442    8.20674044    c      6.000     0
          0.00000000    6.56356688    4.19736520    c      6.000     0
         -1.37254588    4.34822204    0.60378640    c      6.000     0
          0.00000000    6.57360133    6.83402448    c      6.000     0
         -1.37364193    4.35657463   10.42728203    c      6.000     0
         -2.69308651    2.22122189   11.24216974    c      6.000     0
         -4.91459186   -1.37292383    9.86960496    c      6.000     0
         -5.73074568   -2.69238731    7.73444119    c      6.000     0
         -5.73286217   -2.69340776    3.28916282    c      6.000     0
         -4.91663276   -1.37364193    1.15165580    c      6.000     0
         -2.69212275    2.21833061   -0.21913264    c      6.000     0
          2.21895422    5.71589243    2.82540513    c      6.000     0
          1.37254588    4.34822204    0.60378640    c      6.000     0
         -2.69212275   -2.21833061   -0.21913264    c      6.000     0
         -1.32071070    0.00000000   -1.07686044    c      6.000     0
         -4.35825648   -4.91404384    6.88593526    c      6.000     0
         -4.35712265   -4.91007541    4.14082459    c      6.000     0
         -2.69308651   -2.22122189   11.24216974    c      6.000     0
         -1.31953907    0.00000000   12.09018434    c      6.000     0
          1.37364193    4.35657463   10.42728203    c      6.000     0
          2.22254470    5.73042442    8.20674044    c      6.000     0
          4.35825648    4.91404384    6.88593526    c      6.000     0
          4.35712265    4.91007541    4.14082459    c      6.000     0
          2.69212275    2.21833061   -0.21913264    c      6.000     0
          1.32071070    0.00000000   -1.07686044    c      6.000     0
         -2.21895422   -5.71589243    2.82540513    c      6.000     0
         -1.37254588   -4.34822204    0.60378640    c      6.000     0
         -1.37364193   -4.35657463   10.42728203    c      6.000     0
         -2.22254470   -5.73042442    8.20674044    c      6.000     0
          1.31953907    0.00000000   12.09018434    c      6.000     0
          2.69308651    2.22122189   11.24216974    c      6.000     0
          5.73286217    2.69340776    3.28916282    c      6.000     0
          4.91663276    1.37364193    1.15165580    c      6.000     0
          2.69212275   -2.21833061   -0.21913264    c      6.000     0
          1.37254588   -4.34822204    0.60378640    c      6.000     0
          0.00000000   -6.56356688    4.19736520    c      6.000     0
          0.00000000   -6.57360133    6.83402448    c      6.000     0
          1.37364193   -4.35657463   10.42728203    c      6.000     0
          2.69308651   -2.22122189   11.24216974    c      6.000     0
          4.91459186    1.37292383    9.86960496    c      6.000     0
          5.73074568    2.69238731    7.73444119    c      6.000     0
          4.91459186   -1.37292383    9.86960496    c      6.000     0
          6.58065000    1.31967135    5.51157524    c      6.000     0
          4.91663276   -1.37364193    1.15165580    c      6.000     0
          2.21895422   -5.71589243    2.82540513    c      6.000     0
          2.22254470   -5.73042442    8.20674044    c      6.000     0
          4.35825648   -4.91404384    6.88593526    c      6.000     0
          5.73074568   -2.69238731    7.73444119    c      6.000     0
          6.58065000   -1.31967135    5.51157524    c      6.000     0
          5.73286217   -2.69340776    3.28916282    c      6.000     0
          4.35712265   -4.91007541    4.14082459    c      6.000     0
 
       center of nuclear mass  :   -0.00000000   -0.00000000    5.51278718
       center of nuclear charge:    0.00000000   -0.00000000    5.51278718

              +--------------------------------------------------+
              |               basis set information              |
              +--------------------------------------------------+

              we will work with the 1s 3p 5d 7f 9g ... basis set
              ...i.e. with spherical basis functions...

   type   atoms  prim   cont   basis
   ---------------------------------------------------------------------------
    c       60     46     31   def2-TZVP   [5s3p2d1f|11s6p2d1f]
   ---------------------------------------------------------------------------
   total:   60   2760   1860
   ---------------------------------------------------------------------------

   total number of primitive shells          :   20
   total number of contracted shells         :  660
   total number of cartesian basis functions : 2160
   total number of SCF-basis functions       : 1860


 integral neglect threshold       :  0.15E-13
 integral storage threshold THIZE :  0.10E-04
 integral storage threshold THIME :         5

 RI-J AUXILIARY BASIS SET information:

              we will work with the 1s 3p 5d 7f 9g ... basis set
              ...i.e. with spherical basis functions...

   type   atoms  prim   cont   basis
   ---------------------------------------------------------------------------
    c       60     70     49   def2-TZVP   [6s4p3d1f1g|12s5p4d2f1g]
   ---------------------------------------------------------------------------
   total:   60   4200   2940
   ---------------------------------------------------------------------------

   total number of primitive shells          :   24
   total number of contracted shells         :  900
   total number of cartesian basis functions : 3660
   total number of SCF-basis functions       : 2940


 symmetry group of the molecule :   c1 

 the group has the following generators :
   c1(z)

    1 symmetry operations found

 there are 1 real representations :   a   

 maximum number of shells which are related by symmetry :  1


    mo occupation :
   irrep   mo's   occupied
    a     1860      180
 
 number of basis functions   :         1860
 number of occupied orbitals :          180
 
  
           ------------------
           density functional
           ------------------
 PBE functional
 exchange:    LDA + PBE
 correlation: LDA (PW) + PBE
 iterations will be done with small grid
  
 spherical integration : Lebedev's spherical grid
 spherical gridsize    :           5
    i.e. gridpoints    :         590
 value for diffuse not defined
 radial integration    : Chebyshev 2nd kind (scaling 3)
 radial gridsize       :           8
 integration cells     :          60
 partition function    : becke
 partition sharpness   :           3
  

 biggest AO integral is expected to be     5.725698708
  
           ------------------------
               RI-J - INFORMATION
           ------------------------
 Contributions to RI integral batches: 
  neglected integral batches:       70432
  direct contribution:             110095
  memory contribution:       37603
 Memory core needed for (P|Q) and Cholesky     66 MByte
 Memory core minimum needed except of (P|Q)     5 MByte
 Total minimum memory core needed (sum)        71 MByte
  
 ****************************************
 Memory allocated for RI-J  3801 MByte
 ****************************************
                                            

          ------------------------
          nuclear repulsion energy  :   8327.05968212    
          ------------------------

 
          -----------------
          -S,T+V- integrals
          -----------------

 1e-integrals will be neglected if expon. factor < 0.154720E-14
 
   Difference densities algorithm switched on.
   The maximal number of linear combinations of
   difference densities is          20 .

 automatic virtual orbital shift switched on 
      shift if e(lumo)-e(homo) < 0.10000000    


 DIIS switched on: error vector is FDS-SDF
 Max. Iterations for DIIS is     :   4
 DIIS matrix (see manual) 
    Scaling factor of diagonals  :  1.200
    threshold for scaling factor :  0.000

 scf convergence criterion : increment of total energy < .1000000D-08
                  and increment of one-electron energy < .1000000D-05


 <geterg> : there is no data group $energy 

  MOs are in ASCII format !


 reading orbital data $scfmo  from file mos . 

 orbital characterization : scfconv=9
 

 DSCF restart information will be dumped onto file mos


 Starting SCF iterations

          Overall gridpoints after grid construction =        339836

 ITERATION  ENERGY          1e-ENERGY        2e-ENERGY     RMS[dD(SAO)]   TOL
   1  -2284.2798453942    -19679.190615     9067.8510878    0.000D+00 0.154D-13
                            Exc = -323.742543432     Coul =  9391.59363126    
                              N = 359.99572772    
                            current damping = 0.700
 
          max. resid. norm for Fia-block=  1.115D-06 for orbital    179a         
          max. resid. fock norm         =  2.913D-06 for orbital   1807a         

 ITERATION  ENERGY          1e-ENERGY        2e-ENERGY     RMS[dD(SAO)]   TOL
   2  -2284.2798453930    -19679.190614     9067.8510861    0.347D-07 0.979D-14
                            Exc = -323.742543276     Coul =  9391.59362937    
                              N = 359.99572772    
                            current damping = 0.700
 
          Norm of current diis error: 0.61352E-04
          max. resid. norm for Fia-block=  4.195D-07 for orbital    179a         
          max. resid. fock norm         =  8.269D-07 for orbital   1807a         

 ENERGY & DENSITY CONVERGED !

          Overall gridpoints after grid construction =       1007894

 ITERATION  ENERGY          1e-ENERGY        2e-ENERGY     RMS[dD(SAO)]   TOL
   3  -2284.2803483943    -19679.190612     9067.8505817    0.129D-07 0.916D-14
                            Exc = -323.743046231     Coul =  9391.59362798    
                              N = 359.99930031    
                            current damping = 0.550
 
          Norm of current diis error: 0.28894E-04
          max. resid. norm for Fia-block=  2.736D-07 for orbital    173a         
          max. resid. fock norm         =  5.104D-07 for orbital   1807a         

 End of SCF iterations

   convergence criteria satisfied after    3 iterations


                  ------------------------------------------ 
                 |  total energy      =  -2284.28034839429  |
                  ------------------------------------------ 
                 :  kinetic energy    =   2273.85426920475  :
                 :  potential energy  =  -4558.13461759904  :
                 :  virial theorem    =      1.99543572697  :
                 :  wavefunction norm =      1.00000000000  :
                  .......................................... 


 <geterg> : there is no data group $energy 


 <skperg> : $end is missing 


 orbitals $scfmo  will be written to file mos

    irrep                176a        177a        178a        179a        180a   
 eigenvalues H         -0.21411    -0.21411    -0.21401    -0.21395    -0.21394
            eV          -5.8262     -5.8262     -5.8236     -5.8219     -5.8216
 occupation              2.0000      2.0000      2.0000      2.0000      2.0000 

    irrep                181a        182a        183a        184a        185a   
 eigenvalues H         -0.15310    -0.15300    -0.15280    -0.11309    -0.11277
            eV          -4.1662     -4.1633     -4.1579     -3.0774     -3.0686
 
 
 
 
 ==============================================================================
                           electrostatic moments
 ==============================================================================

 reference point for electrostatic moments:    0.00000   0.00000   0.00000

 
              nuc           elec       ->  total
 ------------------------------------------------------------------------------
                          charge      
 ------------------------------------------------------------------------------
         360.000000    -360.000000      -0.000000
 
 ------------------------------------------------------------------------------
                       dipole moment  
 ------------------------------------------------------------------------------
   x       0.000000      -0.000000      -0.000000
   y       0.000000      -0.000000      -0.000000
   z    1984.603386   -1984.609234      -0.005848
 
   | dipole moment | =     0.0058 a.u. =     0.0149 debye 
 
 ------------------------------------------------------------------------------
                     quadrupole moment
 ------------------------------------------------------------------------------
  xx    5404.673382   -5651.247281    -246.573899
  yy    5392.092335   -5638.570908    -246.478574
  zz   16344.077437  -16590.656469    -246.579032
  xy       0.000000      -0.000000      -0.000000
  xz       0.000000      -0.000000      -0.000000
  yz      -0.000000      -0.000000      -0.000000
 
     1/3  trace=    -246.543835
     anisotropy=       0.097993
 
 ==============================================================================
 
 


    ------------------------------------------------------------------------
         total  cpu-time : 10 minutes and  0 seconds
         total wall-time : 10 minutes and  1 seconds
    ------------------------------------------------------------------------


   ****  ridft : all done  ****


    2015-09-22 15:00:58.421 

