
   OpenMP run-time library returned nthreads = 24

 rirpa (c-9-29) : TURBOMOLE V7.3 ( 22142 ) 4 Jul 2018 at 18:12:42
 Copyright (C) 2018 TURBOMOLE GmbH, Karlsruhe


    2019-02-23 14:23:54.394 

 
 
    *************************************************************************
    *************************** PROGRAM RIRPA *******************************
    ******                                                             ******
    ******              H. Eshuis, J. E. Bates and F. Furche           ******
    ******                                                             ******
    ****** Nov 2011                                                    ******
    ****** Copyright TURBOMOLE GmbH                                    ******
    *************************************************************************
    
    
                                References:                                  
    
                   RIRPA:                                                    
                     H. Eshuis, J. Yarkony and F. Furche                     
                     Fast computation of molecular random phase              
                     approximation correlation energies using resolution     
                     of the identity imaginary frequency integration         
                     J. Chem. Phys. 132: 234114 (2010)                       
    
                     H. Eshuis, J. E. Bates and F. Furche                    
                     Electron correlation methods based on                   
                     the random phase approximation                          
                     Theor. Chem. Acc.  131: 1084 (2012)                     
    
                   TWO-COMPONENT RIRPA:                                      
                     M. Kuehn                                                
                     Correlation energies from the                           
                     two-component random-phase approximation                
                     J. Chem. Theory Comput. 10: 623 (2014)                  
    
                   RIRPA GRADIENTS:                                          
                     Asbjoern M. Burow, Jefferson E. Bates, Filipp Furche*,  
                     and Henk Eshuis                                         
                     Analytical First-Order Molecular Properties and Forces  
                     within the Adiabatic Connection Random Phase            
                     Approximation                                           
                     J. Chem. Theory Comput. 10: 180 (2014)                  
    
    
    
      ... OpenMP parallelization enabled, threads:   24

   *-----------------------------------------------------------------------*
   |                     program will use 24 thread(s)                     |
   *-----------------------------------------------------------------------*
 
                FOUND RI-J FLAG
 
  HF exact exchange energy will be computed using RI-J.
 
  The HXX energy will NOT be computed due to nohxx option. 
 


              +--------------------------------------------------+
              | Atomic coordinate, charge and isotop information |
              +--------------------------------------------------+

                    atomic coordinates            atom    charge  isotop
          6.86066598   -0.25077324   -0.09693864    c      6.000     0
          4.86940368    1.94115302    3.23025403    c      6.000     0
          4.20879493   -0.45650314   -0.46137049    c      6.000     0
          2.95224281    0.97556577    1.62093351    c      6.000     0
          3.45118752   -1.86942122   -2.58205654    c      6.000     0
          7.77931741   -2.63092424   -3.75761992    c      6.000     0
          1.82375478    3.82709560    5.89384263    c      6.000     0
          5.22499518   -2.91925188   -4.23200790    c      6.000     0
          7.39594118    1.24125486    2.23476106    c      6.000     0
          4.35997827    3.34620167    5.36978638    c      6.000     0
          8.66123843   -1.29534028   -1.67119589    c      6.000     0
         -0.10911095    2.94815041    4.35072232    c      6.000     0
          0.43882129    1.52094594    2.20109875    c      6.000     0
          0.80439696   -2.45022657   -3.21333694    n      7.000     0
          9.60630563   -3.78408849   -5.53231950    n      7.000     0
          1.16443121    5.34758396    8.13957098    n      7.000     0
         -0.83205790   -1.89560099   -1.63960434    o      8.000     0
          0.35010343   -3.51393205   -5.23051315    o      8.000     0
         11.85262270   -3.28174701   -5.20935347    o      8.000     0
          2.92112326    6.11630793    9.46542627    o      8.000     0
          8.74842502   -5.15564515   -7.21117935    o      8.000     0
         -1.09722460    5.76690786    8.53587792    o      8.000     0
          9.46317620    1.76254735    3.09974905    o      8.000     0
         -1.08874310    0.86028040    1.03088967    h      1.000     0
          4.58711293   -3.95985912   -5.87111729    h      1.000     0
         -2.04331293    3.38252581    4.85309070    h      1.000     0
         10.66179327   -1.07774816   -1.29375706    h      1.000     0
          5.85757869    4.05156518    6.57549774    h      1.000     0
 
       center of nuclear mass  :    4.37302170    0.20384798    0.54298843
       center of nuclear charge:    4.36095683    0.21068293    0.55085303
              +-------------------------------------------------+
              |        Rotational Constants Section             |
              +-------------------------------------------------+
                                   Center of Mass [a.u]:
               4.37302169908135         0.20384798469934         0.54298843352346
                     Principal Moments of Inertia [a.u.]
            3400.86679355711385     12643.89510718763449     16027.78293639908588
                       Rotational constants A,B,C [a.u.]
               0.00014702134201         0.00003954477602         0.00003119583051
                     Rotational constants A,B,C [cm**-1]
               0.01770127739507         0.00476116623763         0.00375595843389
                        Rotational constants A,B,C [MHz]
             530.67094600091718       142.73617293251067       112.60080110403128

   * BASIS SET information:

              +--------------------------------------------------+
              |               basis set information              |
              +--------------------------------------------------+

              we will work with the 1s 3p 5d 7f 9g ... basis set
              ...i.e. with spherical basis functions...

   type   atoms  prim   cont   basis
   ---------------------------------------------------------------------------
    c       13     50     30   cc-pVTZ   [4s3p2d1f|18s5p2d1f]
    n        3     50     30   cc-pVTZ   [4s3p2d1f|18s5p2d1f]
    o        7     50     30   cc-pVTZ   [4s3p2d1f|18s5p2d1f]
    h        5     16     14   cc-pVTZ   [3s2p1d|5s2p1d]
   ---------------------------------------------------------------------------
   total:   28   1230    760
   ---------------------------------------------------------------------------

   total number of primitive shells          :   86
   total number of contracted shells         :  260
   total number of cartesian basis functions :  880
   total number of SCF-basis functions       :  760


   * AUXILIARY BASIS SET information:

              +--------------------------------------------------+
              |               basis set information              |
              +--------------------------------------------------+

              we will work with the 1s 3p 5d 7f 9g ... basis set
              ...i.e. with spherical basis functions...

   type   atoms  prim   cont   basis
   ---------------------------------------------------------------------------
    c       13     81     81   cc-pVTZ   [8s6p5d3f1g|8s6p5d3f1g]
    n        3     81     81   cc-pVTZ   [8s6p5d3f1g|8s6p5d3f1g]
    o        7     81     81   cc-pVTZ   [8s6p5d3f1g|8s6p5d3f1g]
    h        5     30     30   cc-pVTZ   [4s3p2d1f|4s3p2d1f]
   ---------------------------------------------------------------------------
   total:   28   2013   2013
   ---------------------------------------------------------------------------

   total number of primitive shells          :   79
   total number of contracted shells         :  579
   total number of cartesian basis functions : 2498
   total number of SCF-basis functions       : 2013


   * RIJ AUXILIARY BASIS SET information:

              +--------------------------------------------------+
              |               basis set information              |
              +--------------------------------------------------+

              we will work with the 1s 3p 5d 7f 9g ... basis set
              ...i.e. with spherical basis functions...

   type   atoms  prim   cont   basis
   ---------------------------------------------------------------------------
    c       13     70     49   cc-pVTZ   [6s4p3d1f1g|12s5p4d2f1g]
    n        3     70     49   cc-pVTZ   [6s4p3d1f1g|12s5p4d2f1g]
    o        7     70     49   cc-pVTZ   [6s4p3d1f1g|12s5p4d2f1g]
    h        5     16     11   cc-pVTZ   [3s1p1d|5s2p1d]
   ---------------------------------------------------------------------------
   total:   28   1690   1182
   ---------------------------------------------------------------------------

   total number of primitive shells          :   80
   total number of contracted shells         :  370
   total number of cartesian basis functions : 1463
   total number of SCF-basis functions       : 1182

  No keyword $dft found! - HARTREE FOCK CALCULATION

 reading orbital data $scfmo  from file mos
 orbital characterization : scfconv=7

 integral neglect threshold       :  0.27E+02

 scfconv                     7

 MAXIMUM CORE MEMORY WHICH CAN BE ALLOCATED DYNAMICALLY = 72000 MiB
              ( or 9437184000 double words per process)


 there are 1 real representations :   a   

 maximum number of shells which are related by symmetry :  1

 entered riccmos at 2019-02-23 14:23:56.753
  MOs are in ASCII format !


 reading orbital data $scfmo  from file mos
 orbital characterization : scfconv=7
 time elapsed for calculating density matrices :   0.101 sec



              +--------------------------------------------+
              | list of orbitals that will be kept frozen: |
              +--------------------------------------------+
              |   irrep   index      energy     occ/vir    |
              +--------------------------------------------+
              |   a         1      -20.6428     occupied   |
              |   a         2      -20.6383     occupied   |
              |   a         3      -20.6339     occupied   |
              |   a         4      -20.6317     occupied   |
              |   a         5      -20.6236     occupied   |
              |   a         6      -20.6224     occupied   |
              |   a         7      -20.6019     occupied   |
              |   a         8      -15.8968     occupied   |
              |   a         9      -15.8868     occupied   |
              |   a        10      -15.8761     occupied   |
              |   a        11      -11.3882     occupied   |
              |   a       ...        ...        occupied   |
              |   a        23      -11.2981     occupied   |
              +--------------------------------------------+



   Molecular Orbital Statistic:
   ============================

   -----------------------------
   orbitals in total:
   -----------------------------
    frozen occupied :     23
    active occupied :     57
    active virtual  :    680
    frozen virtual  :      0
    all together    :    760
   -----------------------------


     time in riccmoinp     cpu:  4.94 sec    wall:  2.29 sec    ratio:  2.2
     time in scfdens       cpu:  0.10 sec    wall:  0.10 sec    ratio:  1.0
     time in mkiao         cpu:  0.00 sec    wall:  0.00 sec    ratio:  0.0
     time in rir12loc      cpu:  0.00 sec    wall:  0.00 sec    ratio:  0.0
     time in riccmos       cpu:  7.80 sec    wall:  2.52 sec    ratio:  3.1
 leave riccmos at 2019-02-23 14:23:59.272

     total memory allocated for calculation of (Q|P)**(-1/2) : 47 MiB


     calculation of (P|Q) ...
     time in lp2sym        cpu:  8.24 sec    wall:  0.36 sec    ratio: 23.2


     calculation of the Cholesky decomposition of (P|Q)**(-1) ...
     time in invmetri      cpu: 27.59 sec    wall:  1.25 sec    ratio: 22.2

   threshold for RMS(d[D]) in SCF was     :  0.10E-06
   integral neglect threshold             :  0.13E-11
   derivative integral neglect threshold  :  0.10E-06


 setting up bound for integral derivative estimation

 increment for numerical differentiation : 0.00050000
 total memory allocated for calculation of (Q|P)**(-1/2) : 47 MiB
 Dividing biap into                   3445  block chunks,
 using                    10 MiB per block
 Reserved                  35977 MiB for BLAS routines
 Estimated total memory usage:                  71987 MiB
 number of passes for ispin    1
 =    1
 
 Number of eigenvalues < 6e-3:                      0
 
 
            -----------------------------
            Complex frequency integration
            -----------------------------
 
 Number of Clenshaw-Curtis nodes:                    100
 Optimized scaling parameter    :    1.00000000000000     
 Sensitivity measure            :  -2.189248782258346E-012
 
 Done with rirpa frequency point #                     1
 Done with rirpa frequency point #                     2
 Done with rirpa frequency point #                     3
 Done with rirpa frequency point #                     4
 Done with rirpa frequency point #                     5
 Done with rirpa frequency point #                     6
 Done with rirpa frequency point #                     7
 Done with rirpa frequency point #                     8
 Done with rirpa frequency point #                     9
 Done with rirpa frequency point #                    10
 Done with rirpa frequency point #                    11
 Done with rirpa frequency point #                    12
 Done with rirpa frequency point #                    13
 Done with rirpa frequency point #                    14
 Done with rirpa frequency point #                    15
 Done with rirpa frequency point #                    16
 Done with rirpa frequency point #                    17
 Done with rirpa frequency point #                    18
 Done with rirpa frequency point #                    19
 Done with rirpa frequency point #                    20
 Done with rirpa frequency point #                    21
 Done with rirpa frequency point #                    22
 Done with rirpa frequency point #                    23
 Done with rirpa frequency point #                    24
 Done with rirpa frequency point #                    25
 Done with rirpa frequency point #                    26
 Done with rirpa frequency point #                    27
 Done with rirpa frequency point #                    28
 Done with rirpa frequency point #                    29
 Done with rirpa frequency point #                    30
 Done with rirpa frequency point #                    31
 Done with rirpa frequency point #                    32
 Done with rirpa frequency point #                    33
 Done with rirpa frequency point #                    34
 Done with rirpa frequency point #                    35
 Done with rirpa frequency point #                    36
 Done with rirpa frequency point #                    37
 Done with rirpa frequency point #                    38
 Done with rirpa frequency point #                    39
 Done with rirpa frequency point #                    40
 Done with rirpa frequency point #                    41
 Done with rirpa frequency point #                    42
 Done with rirpa frequency point #                    43
 Done with rirpa frequency point #                    44
 Done with rirpa frequency point #                    45
 Done with rirpa frequency point #                    46
 Done with rirpa frequency point #                    47
 Done with rirpa frequency point #                    48
 Done with rirpa frequency point #                    49
 Done with rirpa frequency point #                    50
 Done with rirpa frequency point #                    51
 Done with rirpa frequency point #                    52
 Done with rirpa frequency point #                    53
 Done with rirpa frequency point #                    54
 Done with rirpa frequency point #                    55
 Done with rirpa frequency point #                    56
 Done with rirpa frequency point #                    57
 Done with rirpa frequency point #                    58
 Done with rirpa frequency point #                    59
 Done with rirpa frequency point #                    60
 Done with rirpa frequency point #                    61
 Done with rirpa frequency point #                    62
 Done with rirpa frequency point #                    63
 Done with rirpa frequency point #                    64
 Done with rirpa frequency point #                    65
 Done with rirpa frequency point #                    66
 Done with rirpa frequency point #                    67
 Done with rirpa frequency point #                    68
 Done with rirpa frequency point #                    69
 Done with rirpa frequency point #                    70
 Done with rirpa frequency point #                    71
 Done with rirpa frequency point #                    72
 Done with rirpa frequency point #                    73
 Done with rirpa frequency point #                    74
 Done with rirpa frequency point #                    75
 Done with rirpa frequency point #                    76
 Done with rirpa frequency point #                    77
 Done with rirpa frequency point #                    78
 Done with rirpa frequency point #                    79
 Done with rirpa frequency point #                    80
 Done with rirpa frequency point #                    81
 Done with rirpa frequency point #                    82
 Done with rirpa frequency point #                    83
 Done with rirpa frequency point #                    84
 Done with rirpa frequency point #                    85
 Done with rirpa frequency point #                    86
 Done with rirpa frequency point #                    87
 Done with rirpa frequency point #                    88
 Done with rirpa frequency point #                    89
 Done with rirpa frequency point #                    90
 Done with rirpa frequency point #                    91
 Done with rirpa frequency point #                    92
 Done with rirpa frequency point #                    93
 Done with rirpa frequency point #                    94
 Done with rirpa frequency point #                    95
 Done with rirpa frequency point #                    96
 Done with rirpa frequency point #                    97
 Done with rirpa frequency point #                    98
 Done with rirpa frequency point #                    99
 Done with rirpa frequency point #                   100
 


 RI-RPA correlation energy: -0.4678155565921382E+01
 
 
 HXX Energy calculation skipped due to nohxx option
 

                  --------------------------------------------------- 
                 |  HXX+RIRPA total energy     =     -4.67815556592  |
                  ---------------------------------------------------- 
                 :  RIRPA correlation energy   =     -4.67815556592  :
                 :  HXX total energy           =      0.00000000000  :
                 :  Hartree energy             =      0.00000000000  :
                 :  Exact Exchange energy      =      0.00000000000  :
                  .................................................... 


    ------------------------------------------------------------------------
    Rirpa profiling                cpu                    wall         ratio
    ------------------------------------------------------------------------
    module                         sec     %               sec     %
    ------------------------------------------------------------------------
    RIRPA                     14502.4  100.00         1132.8  100.00  12.8
    STARTUP                       4.7    0.03            2.3    0.21   2.0
    riccmos                       7.8    0.05            2.5    0.22   3.1
    riccaux                      36.0    0.25            1.6    0.14  22.4
    riccbound                     8.3    0.06            4.0    0.36   2.1
    ccmkbaoi                    157.7    1.09            7.6    0.67  20.7
    cc3idxnrm                   141.2    0.97            6.9    0.61  20.4
    ecrpa                     14141.8   97.51         1107.2   97.74  12.8
    tread                       494.2    3.41          501.0   44.23   1.0
    tqbuild                   12438.1   85.77          544.4   48.05  22.8
    trpaln                      433.5    2.99           18.1    1.60  23.9
    ------------------------------------------------------------------------
    sum                       42366.1  292.13         3328.6  293.83  12.7
    ------------------------------------------------------------------------


    ------------------------------------------------------------------------
         total  cpu-time :  4 hours  1 minutes and 43 seconds
         total wall-time : 18 minutes and 53 seconds
    ------------------------------------------------------------------------

   ****  rirpa : all done  ****


    2019-02-23 14:42:47.217 

