Using Slurm to start processes with PMI2
STARTING ridft ON 8 PROCESSORS!
RUNNING PROGRAM /beegfs/modfac/apps/TURBOMOLE/7.0_intel_GA/bin/em64t-unknown-linux-gnu_mpi/ridft_mpi.
PLEASE WAIT UNTIL ridft HAS FINISHED.
Look for the output in slave1.output.
  this is node-proc. number 1 running on node c-15-34.local
  the total number of node-proc. spawned is            8
  parallel platform: MPP, or cluster with fast interconnect

 ridft (c-15-34.local) : TURBOMOLE V7.0.2( ) 15 Jan 2016 at 17:47:42
 Copyright (C) 2016 TURBOMOLE GmbH, Karlsruhe


    2017-11-07 12:24:29.264 



                                  r i d f t

                        DFT program with RI approximation 
                                for coulomb part 




                                                 
                                 References:     
                                                 
          TURBOMOLE:                             
              R. Ahlrichs, M. Baer, M. Haeser, H. Horn, and
              C. Koelmel
              Electronic structure calculations on workstation
              computers: the program system TURBOMOLE
              Chem. Phys. Lett. 162: 165 (1989)
          Density Functional:                              
              O. Treutler and R. Ahlrichs                      
              Efficient Molecular Numerical Integration Schemes
              J. Chem. Phys. 102: 346 (1995)                   
          Parallel Version:                                
              Performance of parallel TURBOMOLE for Density    
              Functional Calculations                          
              M. v. Arnim and R. Ahlrichs                      
              J. Comp. Chem. 19: 1746 (1998)                   
          RI-J Method:                                     
              Auxiliary Basis Sets to approximate Coulomb      
              Potentials                                       
              Chem. Phys. Lett. 240: 283 (1995)                
              K. Eichkorn, O. Treutler, H. Oehm, M. Haeser     
              and R. Ahlrichs                                  
              Chem. Phys. Lett. 242: 652 (1995)                
                                                           
              Auxiliary Basis Sets for Main Row Atoms and their
              Use to approximate Coulomb Potentials            
              K. Eichkorn, F. Weigend, O. Treutler and         
              R. Ahlrichs                                      
              Theo. Chem. Acc. 97: 119 (1997)                   
                                                           
              Accurate Coulomb-fitting basis sets for H to Rn 
              F. Weigend                                        
              Phys. Chem. Chem. Phys. 8: 1057 (2006)            
                                                           
          Multipole accelerated RI-J (MARI-J):             
              Fast evaluation of the Coulomb potential for     
              electron densities using multipole accelerated   
              resolution of identity approximation             
              M. Sierka, A. Hogekamp and R. Ahlrichs           
              J. Chem. Phys. 118: 9136 (2003)                  
          RI-JK Method:                                     
              A fully direct RI-HF algorithm: Implementation,
              optimised auxiliary basis sets, demonstration of
              accuracy and efficiency                         
              F. Weigend                                      
              Phys. Chem. Chem. Phys. 4: 4285 (2002)           
          Two-component HF and DFT with spin-orbit coupling:  
              Self-consistent treatment of spin-orbit         
              interactions with efficient Hartree-Fock and    
              density functional methods                      
              M. K. Armbruster, F. Weigend, C. van Wüllen and 
              W. Klopper                                      
              Phys. Chem. Chem. Phys. 10: 1748 (2008)         
          Relativistic all-electron 2c calculations           
              An efficient implementation of two-component    
              relativistic exact-decoupling methods for large 
              molecules                                       
              D. Peng, N. Middendorf, F. Weigend, M. Reiher   
              J. Chem. Phys. 138, 184105 (2013)               
                                         


 


              +--------------------------------------------------+
              |      general information about current run       |
              +--------------------------------------------------+

 

 SCF run will be profiled !


 DENSITY CONVERGENCE CHECK SWITCHED ON !
 SCF CONVERGENCE IF RMS(delta[D]) <     0.1000000000E-06

 TPSS meta-GGA functional
 exchange:    LDA + TPSS
 correlation: LDA (PW) + TPSS
 A DFT calculation using the RI-J approximation will be carried out.
 Allocatable memory for RI due to $ricore (MB):       12000


              +--------------------------------------------------+
              | Atomic coordinate, charge and isotop information |
              +--------------------------------------------------+

                    atomic coordinates            atom    charge  isotop
         -1.90843828   -1.10953111   -2.47899975    c      6.000     0
         -0.88477137    1.42760058   -2.27544955    c      6.000     0
          0.04612128   -0.00823250   10.74299451    c      6.000     0
         -0.97953122   -2.54664483   10.53648671    c      6.000     0
          4.52442156   -4.12059109    2.55643729    c      6.000     0
         -7.41840035    0.46504368    5.49662970    c      6.000     0
          5.55675797   -1.58460992    2.76006019    c      6.000     0
         -6.39219633    3.00368800    5.70316527    c      6.000     0
         -5.11209763   -0.72442752    9.37251906    c      6.000     0
          2.26151188   -2.83381173   -1.30672004    c      6.000     0
         -4.12560297    1.71574058    9.57006614    c      6.000     0
          3.24422088   -0.39553146   -1.10990678    c      6.000     0
         -5.05687293    1.50426828   -0.75028583    c      6.000     0
          3.19060957   -2.62219920    9.00704861    c      6.000     0
         -4.77886270    3.61717241    7.70034274    c      6.000     0
         -6.79161689   -1.36243108    7.29628381    c      6.000     0
          4.92949969    0.24176816    0.96317032    c      6.000     0
          2.91952566   -4.73956220    0.55825277    c      6.000     0
         -1.34013478   -5.32235983   -0.56652507    c      6.000     0
          2.33217718    3.75970866    0.16637803    c      6.000     0
         -0.52266339    4.20841322    8.83151976    c      6.000     0
         -4.19626541   -4.87917540    8.09319431    c      6.000     0
          0.69040146   -6.27484847    1.01946632    c      6.000     0
          4.36108736    2.80726793    1.75362316    c      6.000     0
         -6.22589375   -3.93018291    6.50675513    c      6.000     0
         -2.55139221    5.15668921    7.24285672    c      6.000     0
         -2.82825853    3.04523304   -1.20596769    c      6.000     0
         -4.48439694   -1.06461555   -1.53317711    c      6.000     0
          0.96316571   -4.16213954    9.46276266    c      6.000     0
          2.62385164   -0.05475505    9.79730972    c      6.000     0
         -7.50632260   -0.19990886    2.83348901    c      6.000     0
         -5.84709580    3.90735635    3.16668214    c      6.000     0
          3.98062465   -5.02614280    5.08773501    c      6.000     0
          5.64590272   -0.91883600    5.42219554    c      6.000     0
          4.67006752   -3.04578195    6.86167131    c      6.000     0
         -6.53929642    1.92739068    1.39184273    c      6.000     0
          5.09876864    1.54974579    6.18227116    c      6.000     0
          1.84250024   -6.51212374    5.52872260    c      6.000     0
         -6.96068323   -2.66898377    2.07418997    c      6.000     0
         -3.70069100    5.37956273    2.72999475    c      6.000     0
         -3.50802676   -2.89784823    9.86460232    c      6.000     0
         -0.36745739   -3.19727290   -2.00281824    c      6.000     0
         -1.49554917    2.08099497   10.26954027    c      6.000     0
          1.64172191    1.77679519   -1.60180315    c      6.000     0
          2.50410927    5.06715275    5.38433807    c      6.000     0
          0.55474372    5.98283742    3.85740479    c      6.000     0
         -2.41479646   -7.10464826    4.39788604    c      6.000     0
         -4.36337756   -6.18615545    2.87165741    c      6.000     0
          0.30219372   -6.06768668    7.75848250    c      6.000     0
          3.55867930    1.98971429    8.41326674    c      6.000     0
         -2.16243257    4.94490661    0.49808223    c      6.000     0
         -5.42071876   -3.10998175   -0.15580111    c      6.000     0
         -3.81681029   -5.28189664    0.33763361    c      6.000     0
          0.46811856    5.32001863    1.19180773    c      6.000     0
         -2.32839900   -6.43328585    7.05950483    c      6.000     0
          1.95424188    4.16357598    7.92022028    c      6.000     0
         -2.02322924    6.02254237    4.80586109    c      6.000     0
         -6.30664721   -4.56990029    3.94625723    c      6.000     0
          0.16456496   -7.15438284    3.45149530    c      6.000     0
          4.44484104    3.44750317    4.31132710    c      6.000     0
 
       center of nuclear mass  :   -0.93140832   -0.55996325    4.12946717
       center of nuclear charge:   -0.93140832   -0.55996325    4.12946717

              +--------------------------------------------------+
              |               basis set information              |
              +--------------------------------------------------+

              we will work with the 1s 3p 5d 7f 9g ... basis set
              ...i.e. with spherical basis functions...

   type   atoms  prim   cont   basis
   ---------------------------------------------------------------------------
    c       60     50     30   cc-pVTZ   [4s3p2d1f|18s5p2d1f]
   ---------------------------------------------------------------------------
   total:   60   3000   1800
   ---------------------------------------------------------------------------

   total number of primitive shells          :   26
   total number of contracted shells         :  600
   total number of cartesian basis functions : 2100
   total number of SCF-basis functions       : 1800


 integral neglect threshold       :  0.16E-13
 integral storage threshold THIZE :  0.10E-04
 integral storage threshold THIME :         5

 RI-J AUXILIARY BASIS SET information:

              we will work with the 1s 3p 5d 7f 9g ... basis set
              ...i.e. with spherical basis functions...

   type   atoms  prim   cont   basis
   ---------------------------------------------------------------------------
    c       60     70     49   cc-pVTZ   [6s4p3d1f1g|12s5p4d2f1g]
   ---------------------------------------------------------------------------
   total:   60   4200   2940
   ---------------------------------------------------------------------------

   total number of primitive shells          :   24
   total number of contracted shells         :  900
   total number of cartesian basis functions : 3660
   total number of SCF-basis functions       : 2940


 symmetry group of the molecule :   c1 

 the group has the following generators :
   c1(z)

    1 symmetry operations found

 there are 1 real representations :   a   

 maximum number of shells which are related by symmetry :  1


    mo occupation :
   irrep   mo's   occupied
    a     1800      180
 
 number of basis functions   :         1800
 number of occupied orbitals :          180
 
  
           ------------------
           density functional
           ------------------
 TPSS meta-GGA functional
 exchange:    LDA + TPSS
 correlation: LDA (PW) + TPSS
 grinp -> nfun, dfgga, dfhybrid 
           5 F F
 iterations will be done with small grid
  
 spherical integration : Lebedev's spherical grid
 spherical gridsize    :           5
    i.e. gridpoints    :         590
 value for diffuse not defined
 radial integration    : Chebyshev 2nd kind (scaling 3)
 radial gridsize       :           8
 integration cells     :          60
 partition function    : becke
 partition sharpness   :           3
  

 <rddim> : input of entry tasksize
           from data group '$pardft' failed !

               Default values taken

 <rddim> : input of entry memdiv
           from data group '$pardft' failed !

               Default values taken
  RIDFT: memory allocation for DFT gridpoints
  MEMORY is divided by 1 as DEFAULT
 Each node can hold at most  the            1 -th part
 of the gridpoints    

 biggest AO integral is expected to be     3.593180334
  
           ------------------------
               RI-J - INFORMATION
           ------------------------
 
 
 **************************************************
 *      MEMORY ALLOCATION FOR PARALLEL RI-DFT     *
 **************************************************
 
 
MEMORY FOR (MU NU/ ALPHA), SEQUENTIAL RUN              11932 MByte
 
            DIFFERENCE IN MEMORY NEED:       DIAG./SLAVE  
 
      TOTAL DIFFERENCE :                    199 MByte
 
      difference in xcore:                   69 MByte
      difference in fatmat:                  47 MByte
      getcor calls skipped by slaves:        84 MByte
 
 
           Integral memory available for diagonal.     11932 MByte
 
           Integral memory available for slave             0 MByte
 
         MEMORY FOR (MU NU/ ALPHA) ON DIAGONALIZER     11932 MByte
 
         MEMORY FOR (MU NU/ ALPHA) ON ONE SLAVE            0 MByte
 
         TOTAL MEMORY FOR (MU NU/ ALPHA),ALL NODES     11932 MByte
 
 Contributions to RI integral batches: 
  neglected integral batches:       54395
  direct contribution:              59415
  memory contribution:       66490
 Memory core needed for (P|Q) and Cholesky     66 MByte
 Memory core minimum needed except of (P|Q)     6 MByte
 Total minimum memory core needed (sum)        72 MByte
     number of direct tasks:         160
  
 ****************************************
 Memory allocated for RI-J 12003 MByte
 ****************************************
                                            

          ------------------------
          nuclear repulsion energy  :   8326.12921790    
          ------------------------

 
          -----------------
          -S integrals
          -----------------

 1e-integrals will be neglected if expon. factor < 0.159141E-14
 
          -----------------
          -T+V integrals
          -----------------

 1e-integrals will be neglected if expon. factor < 0.159141E-14
 Difference densities >>NOT<< switched on in parallel ridft!

 automatic virtual orbital shift switched on 
      shift if e(lumo)-e(homo) < 0.10000000    


 DIIS switched on: error vector is FDS-SDF
 Max. Iterations for DIIS is     :   4
 DIIS matrix (see manual) 
    Scaling factor of diagonals  :  1.200
    threshold for scaling factor :  0.000

 scf convergence criterion : increment of total energy < .1000000D-08
                  and increment of one-electron energy < .1000000D-05


 <geterg> : there is no data group $energy 

  MOs are in ASCII format !


 reading orbital data $scfmo  from file mos . 

 orbital characterization : expanded
 
 mo provided and orthogonalized by Cholesky decomposition

 DSCF restart information will be dumped onto file mos


 Starting SCF iterations


 ITERATION  ENERGY          1e-ENERGY        2e-ENERGY     RMS[dD(SAO)]   TOL
   1  -2280.8867582142    -19563.064966     8956.0489898    0.000D+00 0.159D-13
                            Exc = -320.894486723     Coul =  9276.94347656    
                              N = 360.00153725    
                            current damping = 0.700
 
          max. resid. norm for Fia-block=  2.621D-01 for orbital     96a         
          max. resid. fock norm         =  4.299D+00 for orbital   1677a         

 ITERATION  ENERGY          1e-ENERGY        2e-ENERGY     RMS[dD(SAO)]   TOL
   2  -2285.8872222350    -19649.674308     9037.6578675    0.475D-02 0.159D-13
                            Exc = -324.981155223     Coul =  9362.63902269    
                              N = 360.00142667    
                            current damping = 0.650
 
          Norm of current diis error:  6.4065    
          max. resid. norm for Fia-block=  1.419D-01 for orbital     65a         
          max. resid. fock norm         =  1.715D-01 for orbital    371a         

 ITERATION  ENERGY          1e-ENERGY        2e-ENERGY     RMS[dD(SAO)]   TOL
   3  -2286.9285608297    -19656.776722     9043.7189430    0.171D-02 0.159D-13
                            Exc = -326.049983829     Coul =  9369.76892679    
                              N = 360.00127327    
                            current damping = 0.550
 
          Norm of current diis error:  3.2550    
          max. resid. norm for Fia-block=  6.445D-02 for orbital     65a         
          max. resid. fock norm         =  7.132D-02 for orbital     65a         

 ITERATION  ENERGY          1e-ENERGY        2e-ENERGY     RMS[dD(SAO)]   TOL
   4  -2287.2788922880    -19675.609405     9062.2012952    0.522D-03 0.159D-13
                            Exc = -326.649031248     Coul =  9388.85032644    
                              N = 360.00125550    
                            current damping = 0.450
 
          Norm of current diis error:  1.2748    
          max. resid. norm for Fia-block=  2.788D-02 for orbital     65a         
          max. resid. fock norm         =  3.128D-02 for orbital     65a         

 ITERATION  ENERGY          1e-ENERGY        2e-ENERGY     RMS[dD(SAO)]   TOL
   5  -2287.3350678920    -19673.334361     9059.8700749    0.457D-03 0.159D-13
                            Exc = -326.832505968     Coul =  9386.70258091    
                              N = 360.00120294    
                            current damping = 0.500
 
          Norm of current diis error: 0.52613    
          max. resid. norm for Fia-block=  8.768D-03 for orbital    104a         
          max. resid. fock norm         =  9.381D-03 for orbital     67a         
          mo-orthogonalization: Cholesky decomposition

 ITERATION  ENERGY          1e-ENERGY        2e-ENERGY     RMS[dD(SAO)]   TOL
   6  -2287.3453817929    -19678.102059     9064.6274589    0.137D-03 0.159D-13
                            Exc = -326.967197184     Coul =  9391.59465605    
                              N = 360.00120414    
                            current damping = 0.550
 
          Norm of current diis error: 0.15783    
          max. resid. norm for Fia-block=  3.008D-03 for orbital     68a         
          max. resid. fock norm         =  3.510D-03 for orbital     69a         

 ITERATION  ENERGY          1e-ENERGY        2e-ENERGY     RMS[dD(SAO)]   TOL
   7  -2287.3461978723    -19677.509502     9064.0340867    0.629D-04 0.159D-13
                            Exc = -326.971714331     Coul =  9391.00580098    
                              N = 360.00119861    
                            current damping = 0.600
 
          Norm of current diis error: 0.55738E-01
          max. resid. norm for Fia-block=  1.089D-03 for orbital    177a         
          max. resid. fock norm         =  1.963D-03 for orbital     68a         

 ITERATION  ENERGY          1e-ENERGY        2e-ENERGY     RMS[dD(SAO)]   TOL
   8  -2287.3461790098    -19677.600293     9064.1248966    0.230D-04 0.159D-13
                            Exc = -326.978915646     Coul =  9391.10381223    
                              N = 360.00119778    
                            current damping = 0.650
 
          Norm of current diis error: 0.61775E-01
          max. resid. norm for Fia-block=  4.171D-04 for orbital    179a         
          max. resid. fock norm         =  8.146D-04 for orbital     65a         

 ITERATION  ENERGY          1e-ENERGY        2e-ENERGY     RMS[dD(SAO)]   TOL
   9  -2287.3463178499    -19677.665418     9064.1898825    0.858D-05 0.159D-13
                            Exc = -326.982687056     Coul =  9391.17256958    
                              N = 360.00119730    
                            current damping = 0.500
 
          Norm of current diis error: 0.25782E-01
          max. resid. norm for Fia-block=  3.264D-04 for orbital    179a         
          max. resid. fock norm         =  6.415D-04 for orbital     56a         
          irrep a   : virtual orbitals shifted by    0.00481

 ITERATION  ENERGY          1e-ENERGY        2e-ENERGY     RMS[dD(SAO)]   TOL
  10  -2287.3463427256    -19677.731060     9064.2554990    0.597D-05 0.159D-13
                            Exc = -326.984512985     Coul =  9391.24001194    
                              N = 360.00119719    
                            current damping = 0.350
 
          Norm of current diis error: 0.10414E-01
          max. resid. norm for Fia-block=  1.891D-04 for orbital    179a         
          max. resid. fock norm         =  3.440D-04 for orbital     25a         
          irrep a   : virtual orbitals shifted by    0.01461
          mo-orthogonalization: Cholesky decomposition

 ITERATION  ENERGY          1e-ENERGY        2e-ENERGY     RMS[dD(SAO)]   TOL
  11  -2287.3463412928    -19677.639858     9064.1642988    0.422D-05 0.159D-13
                            Exc = -326.983078515     Coul =  9391.14737730    
                              N = 360.00119691    
                            current damping = 0.400
 
          Norm of current diis error: 0.11194E-01
          max. resid. norm for Fia-block=  1.005D-04 for orbital    179a         
          max. resid. fock norm         =  2.310D-04 for orbital     70a         
          irrep a   : virtual orbitals shifted by    0.01151

 ITERATION  ENERGY          1e-ENERGY        2e-ENERGY     RMS[dD(SAO)]   TOL
  12  -2287.3463461649    -19677.660824     9064.1852599    0.184D-05 0.159D-13
                            Exc = -326.983520083     Coul =  9391.16877996    
                              N = 360.00119695    
                            current damping = 0.450
 
          Norm of current diis error: 0.31553E-02
          max. resid. norm for Fia-block=  3.656D-05 for orbital    151a         
          max. resid. fock norm         =  7.747D-05 for orbital     40a         
          irrep a   : virtual orbitals shifted by    0.00837

 ITERATION  ENERGY          1e-ENERGY        2e-ENERGY     RMS[dD(SAO)]   TOL
  13  -2287.3463463213    -19677.685043     9064.2094791    0.863D-06 0.159D-13
                            Exc = -326.983864503     Coul =  9391.19334356    
                              N = 360.00119703    
                            current damping = 0.300
 
          Norm of current diis error: 0.18977E-02
          max. resid. norm for Fia-block=  2.408D-05 for orbital    180a         
          max. resid. fock norm         =  6.259D-05 for orbital     53a         
          irrep a   : virtual orbitals shifted by    0.01785

 ITERATION  ENERGY          1e-ENERGY        2e-ENERGY     RMS[dD(SAO)]   TOL
  14  -2287.3463464345    -19677.683215     9064.2076504    0.470D-06 0.159D-13
                            Exc = -326.983810150     Coul =  9391.19146057    
                              N = 360.00119702    
                            current damping = 0.350
 
          Norm of current diis error: 0.89423E-03
          max. resid. norm for Fia-block=  1.055D-05 for orbital    177a         
          max. resid. fock norm         =  2.748D-05 for orbital     15a         
          irrep a   : virtual orbitals shifted by    0.01470

 ITERATION  ENERGY          1e-ENERGY        2e-ENERGY     RMS[dD(SAO)]   TOL
  15  -2287.3463464527    -19677.680932     9064.2053677    0.204D-06 0.159D-13
                            Exc = -326.983776967     Coul =  9391.18914465    
                              N = 360.00119702    
                            current damping = 0.200
 
          Norm of current diis error: 0.61187E-03
          max. resid. norm for Fia-block=  6.034D-06 for orbital    174a         
          max. resid. fock norm         =  1.334D-05 for orbital      6a         
          irrep a   : virtual orbitals shifted by    0.02417
          mo-orthogonalization: Cholesky decomposition

 ITERATION  ENERGY          1e-ENERGY        2e-ENERGY     RMS[dD(SAO)]   TOL
  16  -2287.3463464666    -19677.681980     9064.2064161    0.104D-06 0.159D-13
                            Exc = -326.983796317     Coul =  9391.19021239    
                              N = 360.00119702    
                            current damping = 0.250
 
          Norm of current diis error: 0.10835E-03
          max. resid. norm for Fia-block=  1.331D-06 for orbital    176a         
          max. resid. fock norm         =  3.360D-06 for orbital      6a         
          irrep a   : virtual orbitals shifted by    0.02102

 DENSITY CONVERGED !


 ITERATION  ENERGY          1e-ENERGY        2e-ENERGY     RMS[dD(SAO)]   TOL
  17  -2287.3463464665    -19677.681802     9064.2062372    0.231D-07 0.159D-13
                            Exc = -326.983795806     Coul =  9391.19003297    
                              N = 360.00119702    
                            current damping = 0.300
 
          Norm of current diis error: 0.79482E-04
          max. resid. norm for Fia-block=  6.617D-07 for orbital    167a         
          max. resid. fock norm         =  1.822D-06 for orbital     44a         
          irrep a   : virtual orbitals shifted by    0.01786

 DENSITY CONVERGED !


 ITERATION  ENERGY          1e-ENERGY        2e-ENERGY     RMS[dD(SAO)]   TOL
  18  -2287.3463464668    -19677.681755     9064.2061910    0.128D-07 0.159D-13
                            Exc = -326.983795122     Coul =  9391.18998616    
                              N = 360.00119702    
                            current damping = 0.150
 
          Norm of current diis error: 0.24231E-04
          max. resid. norm for Fia-block=  3.902D-07 for orbital    180a         
          max. resid. fock norm         =  8.741D-07 for orbital     20a         
          irrep a   : virtual orbitals shifted by    0.02733

 DENSITY CONVERGED !


 ITERATION  ENERGY          1e-ENERGY        2e-ENERGY     RMS[dD(SAO)]   TOL
  19  -2287.3463464668    -19677.681860     9064.2062961    0.814D-08 0.159D-13
                            Exc = -326.983796318     Coul =  9391.19009239    
                              N = 360.00119702    
                            current damping = 0.200
 
          Norm of current diis error: 0.26390E-04
          max. resid. norm for Fia-block=  2.452D-07 for orbital    179a         
          max. resid. fock norm         =  6.638D-07 for orbital     57a         
          irrep a   : virtual orbitals shifted by    0.02417

 ENERGY & DENSITY CONVERGED !


 ITERATION  ENERGY          1e-ENERGY        2e-ENERGY     RMS[dD(SAO)]   TOL
  20  -2287.3447556900    -19677.681835     9064.2078614    0.510D-08 0.159D-13
                            Exc = -326.982205011     Coul =  9391.19006646    
                              N = 359.99976162    
                            current damping = 0.250
 
          Norm of current diis error: 0.65234E-05
          max. resid. norm for Fia-block=  1.060D-07 for orbital    180a         
          max. resid. fock norm         =  2.869D-07 for orbital     51a         

 End of SCF iterations

   convergence criteria satisfied after   20 iterations


                  ------------------------------------------ 
                 |  total energy      =  -2287.34475569002  |
                  ------------------------------------------ 
                 :  kinetic energy    =   2274.02356842055  :
                 :  potential energy  =  -4561.36832411056  :
                 :  virial theorem    =      1.99417613491  :
                 :  wavefunction norm =      1.00000000000  :
                  .......................................... 


 <geterg> : there is no data group $energy 


 <skperg> : $end is missing 


 orbitals $scfmo  will be written to file mos

    irrep                176a        177a        178a        179a        180a   
 eigenvalues H         -0.21052    -0.21046    -0.21042    -0.21037    -0.21035
            eV          -5.7287     -5.7269     -5.7259     -5.7245     -5.7239
 occupation              2.0000      2.0000      2.0000      2.0000      2.0000 

    irrep                181a        182a        183a        184a        185a   
 eigenvalues H         -0.14716    -0.14712    -0.14703    -0.10608    -0.10601
            eV          -4.0044     -4.0033     -4.0009     -2.8866     -2.8848
 
 
 ! grave: sending quit signal to master process
 
 
 
 
 ==============================================================================
                           electrostatic moments
 ==============================================================================

 reference point for electrostatic moments:    0.00000   0.00000   0.00000

 
              nuc           elec       ->  total
 ------------------------------------------------------------------------------
                          charge      
 ------------------------------------------------------------------------------
         360.000000    -360.000000      -0.000000
 
 ------------------------------------------------------------------------------
                       dipole moment  
 ------------------------------------------------------------------------------
   x    -335.306995     335.313847       0.006852
   y    -201.586768     201.588797       0.002029
   z    1486.608182   -1486.615285      -0.007103
 
   | dipole moment | =     0.0101 a.u. =     0.0256 debye 
 
 ------------------------------------------------------------------------------
                     quadrupole moment
 ------------------------------------------------------------------------------
  xx    5714.680622   -5960.096312    -245.415691
  yy    5516.367338   -5761.795692    -245.428355
  zz   11536.798746  -11782.261301    -245.462555
  xy     188.433114    -188.430850       0.002264
  xz   -1382.856193    1382.885151       0.028959
  yz    -835.133716     835.143861       0.010145
 
     1/3  trace=    -245.435534
     anisotropy=       0.067846
 
 ==============================================================================
 

    ridft profiling
  --------------------------------------------------------------------
             module   cpu total (s)       %  wall total (s)       %

               RIDFT          4529.6  100.00          4536.7  100.00
         Ridft_b_scf           118.1    2.61           118.2    2.60
        b_scf_prelim             0.0    0.00             0.0    0.00
        b_scf_molinp             0.0    0.00             0.0    0.00
         b_scf_init0             0.0    0.00             0.0    0.00
        b_scf_auxbas             0.0    0.00             0.0    0.00
      b_scf_symmetry             0.0    0.00             0.0    0.00
         b_scf_cosmo             0.0    0.00             0.0    0.00
        b_scf_params             3.3    0.07             3.3    0.07
          b_scf_ri-j           102.4    2.26           102.5    2.26
    b_scf_ri-j_auxpq           102.3    2.26           102.4    2.26
     ri-j_auxpq_chol             2.9    0.06             2.9    0.06
         b_scf_1elec             2.2    0.05             2.2    0.05
       b_scf_moinput            10.2    0.23            10.2    0.23
     moinput_orthmos             9.7    0.21             9.7    0.21
    b_scf_dft-dstmax             0.0    0.00             0.0    0.00
           Ridft_scf          4410.6   97.37          4417.6   97.37
          Scf_b_loop             0.0    0.00             0.0    0.00
                noga             0.0    0.00             0.0    0.00
            Scf_loop          4407.7   97.31          4414.7   97.31
     scf_loop_mkdmat             8.5    0.19             8.5    0.19
       scf_loop_ri-j           504.5   11.14           504.9   11.13
      parlp1.bc.dens             1.5    0.03             1.5    0.03
        parlp1.gs.gp             8.7    0.19             8.8    0.19
        parlp2.bc.gq             0.0    0.00             0.0    0.00
        scf_loop_dft          3716.4   82.05          3722.5   82.05
      pardft.bc.dens             0.0    0.00             0.0    0.00
        dft_grid_con             3.1    0.07             3.1    0.07
          dft_xcmrhf          3704.9   81.79          3710.9   81.80
          dft_getval            59.3    1.31            59.4    1.31
          funct2 dst             0.5    0.01             0.5    0.01
      funct2 f2loop1             9.5    0.21             9.6    0.21
      funct2 f2loop2            29.0    0.64            29.0    0.64
          funct2 s+c            19.5    0.43            19.5    0.43
        funct2 cmf_2            17.6    0.39            17.6    0.39
          dft_mkdens          1751.7   38.67          1754.6   38.68
        dft_mgga-fun             1.4    0.03             1.5    0.03
          dft_mkfock          1891.7   41.76          1894.7   41.76
     pardft.red.fock           243.9    5.38           244.3    5.38
     scf_loop_energy             0.2    0.00             0.2    0.00
     scf_loop_mkfock             0.3    0.01             0.3    0.01
       scf_loop_diis            57.9    1.28            58.0    1.28
       scf_loop_diag            60.5    1.34            60.6    1.34
         diag_tritrn            22.3    0.49            22.4    0.49
          diag_rdiag            37.6    0.83            37.7    0.83
     scf_loop_modump            46.9    1.03            47.0    1.04
      scf_loop_ortho            11.2    0.25            11.2    0.25
          Scf_a_loop             2.9    0.06             2.9    0.06
         Ridft_a_scf             0.9    0.02             1.0    0.02
         a_scf_fanal             0.8    0.02             0.9    0.02
 


    ------------------------------------------------------------------------
         total  cpu-time :  1 hours 15 minutes and 33 seconds
         total wall-time :  1 hours 15 minutes and 40 seconds
    ------------------------------------------------------------------------


   ****  ridft : all done  ****


    2017-11-07 13:40:09.690 

