Using Slurm to start processes with PMI2
Found environment variable SKIP_PARASTAT
   -> do NOT perform a parallel statistics run for the task
      distribution, use automatic task generation instead
STARTING dscf ON 32 PROCESSORS!
RUNNING PROGRAM /beegfs/modfac/apps/TURBOMOLE/7.0_intel_GA/bin/em64t-unknown-linux-gnu_mpi/dscf_mpi.
PLEASE WAIT UNTIL dscf HAS FINISHED.
Look for the output in slave1.output.
  this is node-proc. number 1 running on node c-6-27.local
  the total number of node-proc. spawned is           32
  parallel platform: MPP, or cluster with fast interconnect

 dscf (c-6-27.local) : TURBOMOLE V7.0.2( ) 15 Jan 2016 at 17:47:42
 Copyright (C) 2016 TURBOMOLE GmbH, Karlsruhe


    2018-02-19 17:27:15.658 


 SCF run will be profiled !



                             d s c f - program

                   idea & directorship : reinhart ahlrichs
                   program development : marco haeser
                                         michael baer
                           dft version : oliver treutler
           parallelized version : malte v. arnim, gina corongiu, GMD 


                          quantum chemistry group
                          universitaet  karlsruhe
                                  germany




                          References             
                                                 
          TURBOMOLE:                             
              R. Ahlrichs, M. Baer, M. Haeser, H. Horn, and
              C. Koelmel
              Electronic structure calculations on workstation
              computers: the program system TURBOMOLE
              Chem. Phys. Lett. 162: 165 (1989)
          Density Functional:                              
              O. Treutler and R. Ahlrichs                      
              Efficient Molecular Numerical Integration Schemes
              J. Chem. Phys. 102: 346 (1995)                   
          Parallel Version:                                
              Performance of parallel TURBOMOLE for Density    
              Functional Calculations                          
              M. v. Arnim and R. Ahlrichs                      
              J. Comp. Chem. 19: 1746 (1998)                   
                                         




              +--------------------------------------------------+
              | Atomic coordinate, charge and isotop information |
              +--------------------------------------------------+

                    atomic coordinates            atom    charge  isotop
          7.06839993    6.96662517   -3.78282179    c      6.000     0
          6.81718081    7.58624969    0.75447461    c      6.000     0
         10.17303030   -1.43304544    2.62964269    c      6.000     0
          9.70834447   -2.36461127   -1.83626270    c      6.000     0
         -5.00896409    8.50740321   -4.09532670    c      6.000     0
          1.30817425  -10.04908875   -0.02953448    c      6.000     0
         -4.74928211    9.12599951    0.44257543    c      6.000     0
          1.32279305   -9.97229958    4.55789608    c      6.000     0
          9.40934030   -3.86510789    3.21789820    c      6.000     0
          4.73874471    9.13268269    0.42922251    c      6.000     0
          4.99225691    8.52445581   -4.11025873    c      6.000     0
          8.92860109   -4.78595200   -1.24952035    c      6.000     0
         -6.82423621    7.57620864    0.77429402    c      6.000     0
         -7.08072231    6.94529403   -3.76115623    c      6.000     0
         -1.29863211  -10.05112860   -0.02475216    c      6.000     0
         -1.29707533   -9.97556841    4.56260240    c      6.000     0
        -10.17182887   -1.45470232    2.65839043    c      6.000     0
         -9.70929495   -2.38199560   -1.80843383    c      6.000     0
         -8.92601185   -4.80297303   -1.22445828    c      6.000     0
         -9.40460375   -3.88631024    3.24395407    c      6.000     0
          8.59147749   -5.52500980    1.29553001    c      6.000     0
          3.67605532    9.48575233   -1.99562647    c      6.000     0
         -3.69134146    9.47593848   -1.98485974    c      6.000     0
          2.66883361   -9.82058930    2.26041780    c      6.000     0
          7.90939811    6.32569026   -1.33195061    c      6.000     0
         10.16237149   -0.58235295    0.10017574    c      6.000     0
         -8.58582867   -5.54375848    1.31957459    c      6.000     0
        -10.16377251   -0.60168653    0.12953389    c      6.000     0
         -7.91719765    6.30880092   -1.30754564    c      6.000     0
         -2.65134307   -9.82529570    2.26997467    c      6.000     0
          5.19716430   -8.97798077    2.15723224    c      6.000     0
         -1.16353247   10.30126916   -2.20317014    c      6.000     0
          1.14564358   10.30505673   -2.20670023    c      6.000     0
          7.04101419   -7.62509432    1.84150883    c      6.000     0
         10.13192133    2.02414166   -0.46072061    c      6.000     0
          9.43243498    4.17490263   -0.92302053    c      6.000     0
         -9.43624045    4.15626523   -0.89249933    c      6.000     0
         -5.18189961   -8.98846013    2.17474426    c      6.000     0
        -10.13470555    2.00518631   -0.43002818    c      6.000     0
         -7.03056744   -7.64132393    1.86252041    c      6.000     0
         -2.32233259   -9.90386800    6.33777271    h      1.000     0
         -2.33879897  -10.06371925   -1.79041794    h      1.000     0
         -7.52949657    7.18402772    2.65816162    h      1.000     0
         -7.97472597    6.05924165   -5.38069845    h      1.000     0
          7.52535643    7.19094807    2.63656613    h      1.000     0
          7.96234585    6.08679348   -5.40578345    h      1.000     0
          9.80574470   -1.75544537   -3.79185535    h      1.000     0
         10.62937047   -0.10426406    4.12298185    h      1.000     0
          2.34173743  -10.06155354   -1.79896486    h      1.000     0
          2.35406582   -9.89411812    6.32930690    h      1.000     0
         -4.26511071    8.84349768   -5.97709621    h      1.000     0
         -3.81158480    9.96097977    2.06298225    h      1.000     0
          3.80182284    9.96221555    2.05284690    h      1.000     0
          4.24303803    8.86039803   -5.98992748    h      1.000     0
          8.41516165   -6.10037887   -2.73595956    h      1.000     0
          9.25474763   -4.45089355    5.17750227    h      1.000     0
         -9.24557238   -4.47283137    5.20299795    h      1.000     0
         -9.81004931   -1.77129815   -3.76336716    h      1.000     0
        -10.62720319   -0.12733547    4.15332518    h      1.000     0
         -8.41146537   -6.11458465   -2.71305491    h      1.000     0
 
       center of nuclear mass  :   -0.00009952   -0.03077908    0.07533735
       center of nuclear charge:   -0.00010135   -0.03088717    0.07510929

              +--------------------------------------------------+
              |               basis set information              |
              +--------------------------------------------------+

              we will work with the 1s 3p 5d 7f 9g ... basis set
              ...i.e. with spherical basis functions...

   type   atoms  prim   cont   basis
   ---------------------------------------------------------------------------
    c       40     77     55   cc-pVQZ   [5s4p3d2f1g|21s6p3d2f1g]
    h       20     32     30   cc-pVQZ   [4s3p2d1f|6s3p2d1f]
   ---------------------------------------------------------------------------
   total:   60   3720   2800
   ---------------------------------------------------------------------------

   total number of primitive shells          :   45
   total number of contracted shells         :  800
   total number of cartesian basis functions : 3500
   total number of SCF-basis functions       : 2800


 integral neglect threshold       :  0.95E-12
 integral storage threshold THIZE :  0.10E-04
 integral storage threshold THIME :         5


 DENSITY CONVERGENCE CHECK SWITCHED ON !
 SCF CONVERGENCE IF RMS(delta[D]) <     0.1000000000E-06


 symmetry group of the molecule :   c1 

 the group has the following generators :
   c1(z)

    1 symmetry operations found

 there are 1 real representations :   a   

 maximum number of shells which are related by symmetry :  1


    mo occupation :
   irrep   mo's   occupied
    a     2800      130
 
 number of basis functions   :         2800
 number of occupied orbitals :          130
 
 No pre-computed optimal task distribution found
   ... using automatic task generation

          ------------------------
          nuclear repulsion energy  :   3382.45308235    
          ------------------------

 
          -----------------
          -S integrals
          -----------------

 1e-integrals will be neglected if expon. factor < 0.954846E-13
 
          -----------------
          -T+V integrals
          -----------------

 1e-integrals will be neglected if expon. factor < 0.954846E-13
 
   Difference densities algorithm switched on.
   The maximal number of linear combinations of
   difference densities is          20 .

 automatic virtual orbital shift switched on 
      shift if e(lumo)-e(homo) < 0.10000000    


 DIIS switched on: error vector is FDS-SDF
 Max. Iterations for DIIS is     :   5
 DIIS matrix (see manual) 
    Scaling factor of diagonals  :  1.200
    threshold for scaling factor :  0.000

 scf convergence criterion : increment of total energy < .1000000D-06
                  and increment of one-electron energy < .1000000D-03


 <geterg> : there is no data group $energy 

  MOs are in ASCII format !


 reading orbital data $scfmo  from file mos . 

 orbital characterization : expanded
 
 mo provided and orthogonalized by Cholesky decomposition

 DSCF restart information will be dumped onto file mos


  STARTING INTEGRAL EVALUATION FOR 1st SCF ITERATION
  time elapsed for pre-SCF steps : cpu           55.089 sec
                                   wall          55.379 sec

 
                                              current damping :  0.300
 ITERATION  ENERGY          1e-ENERGY        2e-ENERGY     RMS[dD(SAO)]   TOL
   1  -1521.1817314895    -8732.2203894     3828.5855756    0.000D+00 0.952D-12
          max. resid. norm for Fia-block=  3.470D-01 for orbital      7a         
          max. resid. fock norm         =  7.485D+00 for orbital   2542a         
          Delta Eig. =   503.7372002393 eV 
 
                                              current damping :  0.250
 ITERATION  ENERGY          1e-ENERGY        2e-ENERGY     RMS[dD(SAO)]   TOL
   2  -1525.8346523761    -8784.3685838     3876.0808491    0.135D-01 0.946D-12
          Norm of current diis error:  5.7497    
          max. resid. norm for Fia-block=  1.128D-01 for orbital     56a         
          max. resid. fock norm         =  1.471D-01 for orbital    390a         
          Delta Eig. =   126.4608272565 eV 
 
                                              current damping :  0.150
 ITERATION  ENERGY          1e-ENERGY        2e-ENERGY     RMS[dD(SAO)]   TOL
   3  -1526.4905014475    -8788.3247378     3879.3811540    0.264D-02 0.551D-12
          Norm of current diis error:  1.9367    
          max. resid. norm for Fia-block=  3.983D-02 for orbital     84a         
          max. resid. fock norm         =  4.323D-02 for orbital     51a         
          Delta Eig. =    27.9497426028 eV 
 
                                              current damping :  0.100
 ITERATION  ENERGY          1e-ENERGY        2e-ENERGY     RMS[dD(SAO)]   TOL
   4  -1526.5986117810    -8792.7923929     3883.7406988    0.786D-03 0.458D-12
          Norm of current diis error: 0.48583    
          max. resid. norm for Fia-block=  1.205D-02 for orbital     78a         
          max. resid. fock norm         =  1.577D-02 for orbital     60a         
          Delta Eig. =     3.9016983029 eV 
 
                                              current damping :  0.150
 ITERATION  ENERGY          1e-ENERGY        2e-ENERGY     RMS[dD(SAO)]   TOL
   5  -1526.6094996288    -8792.4554851     3883.3929031    0.382D-03 0.402D-12
          Norm of current diis error: 0.16836    
          max. resid. norm for Fia-block=  4.117D-03 for orbital    128a         
          max. resid. fock norm         =  6.195D-03 for orbital   2770a         
 mo-orthogonalization: Cholesky decomposition
          Delta Eig. =     0.5084463901 eV 
 
                                              current damping :  0.200
 ITERATION  ENERGY          1e-ENERGY        2e-ENERGY     RMS[dD(SAO)]   TOL
   6  -1526.6109060489    -8792.7354911     3883.6715027    0.125D-03 0.377D-12
          Norm of current diis error: 0.57405E-01
          max. resid. norm for Fia-block=  2.681D-03 for orbital    120a         
          max. resid. fock norm         =  2.742D-03 for orbital    120a         
          Delta Eig. =     0.0569334258 eV 
 
                                              current damping :  0.250
 ITERATION  ENERGY          1e-ENERGY        2e-ENERGY     RMS[dD(SAO)]   TOL
   7  -1526.6111596436    -8792.7153529     3883.6511109    0.507D-04 0.356D-12
          Norm of current diis error: 0.24071E-01
          max. resid. norm for Fia-block=  1.300D-03 for orbital    120a         
          max. resid. fock norm         =  1.316D-03 for orbital    120a         
          Delta Eig. =     0.0155457282 eV 
 
                                              current damping :  0.100
 ITERATION  ENERGY          1e-ENERGY        2e-ENERGY     RMS[dD(SAO)]   TOL
   8  -1526.6112082988    -8792.7104813     3883.6461906    0.192D-04 0.339D-12
          Norm of current diis error: 0.10212E-01
          max. resid. norm for Fia-block=  6.374D-04 for orbital    120a         
          max. resid. fock norm         =  6.430D-04 for orbital    120a         
          Delta Eig. =     0.0094976704 eV 
 
                                              current damping :  0.150
 ITERATION  ENERGY          1e-ENERGY        2e-ENERGY     RMS[dD(SAO)]   TOL
   9  -1526.6112183810    -8792.7156870     3883.6513863    0.702D-05 0.325D-12
          Norm of current diis error: 0.41221E-02
          max. resid. norm for Fia-block=  2.197D-04 for orbital    115a         
          max. resid. fock norm         =  2.220D-04 for orbital    115a         
          Delta Eig. =     0.0042754433 eV 
 
                                              current damping :  0.200
 ITERATION  ENERGY          1e-ENERGY        2e-ENERGY     RMS[dD(SAO)]   TOL
  10  -1526.6112198277    -8792.7145799     3883.6502777    0.168D-05 0.316D-12
          Norm of current diis error: 0.21654E-02
          max. resid. norm for Fia-block=  1.243D-04 for orbital    115a         
          max. resid. fock norm         =  1.262D-04 for orbital    115a         
 mo-orthogonalization: Cholesky decomposition
          Delta Eig. =     0.0016961516 eV 
 
                                              current damping :  0.250
 ITERATION  ENERGY          1e-ENERGY        2e-ENERGY     RMS[dD(SAO)]   TOL
  11  -1526.6112202283    -8792.7148298     3883.6505272    0.729D-06 0.310D-12
          Norm of current diis error: 0.13284E-02
          max. resid. norm for Fia-block=  9.584D-05 for orbital    115a         
          max. resid. fock norm         =  9.649D-05 for orbital    115a         
          Delta Eig. =     0.0008462533 eV 
 
                                              current damping :  0.100
 ITERATION  ENERGY          1e-ENERGY        2e-ENERGY     RMS[dD(SAO)]   TOL
  12  -1526.6112204033    -8792.7154960     3883.6511933    0.466D-06 0.303D-12
          Norm of current diis error: 0.79230E-03
          max. resid. norm for Fia-block=  7.350D-05 for orbital    115a         
          max. resid. fock norm         =  7.437D-05 for orbital    115a         
          Delta Eig. =     0.0006324077 eV 
 
                                              current damping :  0.150
 ITERATION  ENERGY          1e-ENERGY        2e-ENERGY     RMS[dD(SAO)]   TOL
  13  -1526.6112204886    -8792.7152283     3883.6509255    0.299D-06 0.292D-12
          Norm of current diis error: 0.39155E-03
          max. resid. norm for Fia-block=  3.840D-05 for orbital    115a         
          max. resid. fock norm         =  3.878D-05 for orbital    115a         
          Delta Eig. =     0.0004760949 eV 
 
                                              current damping :  0.200
 ITERATION  ENERGY          1e-ENERGY        2e-ENERGY     RMS[dD(SAO)]   TOL
  14  -1526.6112205078    -8792.7153378     3883.6510350    0.127D-06 0.282D-12
          Norm of current diis error: 0.17573E-03
          max. resid. norm for Fia-block=  1.649D-05 for orbital    115a         
          max. resid. fock norm         =  1.674D-05 for orbital    115a         
          Delta Eig. =     0.0001941703 eV 

 ENERGY & DENSITY CONVERGED !

 
                                              current damping :  0.100
 ITERATION  ENERGY          1e-ENERGY        2e-ENERGY     RMS[dD(SAO)]   TOL
  15  -1526.6112205100    -8792.7153468     3883.6510439    0.554D-07 0.277D-12
          max. resid. norm for Fia-block=  2.383D-06 for orbital    127a         
          max. resid. fock norm         =  4.141D-06 for orbital     37a         

 convergence criteria satisfied after 15 iterations


                  ------------------------------------------ 
                 |  total energy      =  -1526.61122050999  |
                  ------------------------------------------ 
                 :  kinetic energy    =   1524.45589753170  :
                 :  potential energy  =  -3051.06711804169  :
                 :  virial theorem    =      1.99858816511  :
                 :  wavefunction norm =      1.00000000000  :
                  .......................................... 


 <geterg> : there is no data group $energy 


 <skperg> : $end is missing 


 orbitals $scfmo  will be written to file mos

    irrep                126a        127a        128a        129a        130a   
 eigenvalues H         -0.35485    -0.32171    -0.32120    -0.26247    -0.26228
            eV          -9.6561     -8.7542     -8.7402     -7.1422     -7.1370
 occupation              2.0000      2.0000      2.0000      2.0000      2.0000 

    irrep                131a        132a        133a        134a        135a   
 eigenvalues H          0.02372     0.02383     0.08290     0.08409     0.09896
            eV           0.6455      0.6484      2.2560      2.2882      2.6930
 
 
 
 
 ==============================================================================
                           electrostatic moments
 ==============================================================================

 reference point for electrostatic moments:    0.00000   0.00000   0.00000

 
              nuc           elec       ->  total
 ------------------------------------------------------------------------------
                          charge      
 ------------------------------------------------------------------------------
         260.000000    -260.000000      -0.000000
 
 ------------------------------------------------------------------------------
                       dipole moment  
 ------------------------------------------------------------------------------
   x      -0.026350       0.027230       0.000880
   y      -8.030664       8.037564       0.006900
   z      19.528416     -19.515716       0.012699
 
   | dipole moment | =     0.0145 a.u. =     0.0368 debye 
 
 ------------------------------------------------------------------------------
                     quadrupole moment
 ------------------------------------------------------------------------------
  xx   13576.824640  -13762.990077    -186.165437
  yy   13432.198439  -13617.932288    -185.733849
  zz    1588.176232   -1737.955126    -149.778894
  xy       3.812256      -3.819810      -0.007554
  xz     -17.011538      17.044539       0.033001
  yz   -2827.746561    2833.104802       5.358241
 
     1/3  trace=    -173.892726
     anisotropy=      37.344323
 
 ==============================================================================
 
 
 ! grave: sending quit signal to master process
 

    dscf profiling
  --------------------------------------------------------------------
             module   cpu total (s)       %  wall total (s)       %

          dscf.total          7462.8  100.00          7468.0  100.00
        dscf.prepare            54.2    0.73            54.2    0.73
      prepare.oneint             3.0    0.04             3.0    0.04
     prepare.moinput             0.5    0.01             0.5    0.01
     prepare.orthmos            49.1    0.66            49.0    0.66
            dscf.scf          7407.6   99.26          7412.7   99.26
             scf.pre             0.0    0.00             0.0    0.00
        scf.makedmat            14.4    0.19            15.7    0.21
          scf.shlupf          7001.3   93.82          6996.6   93.69
      shlupf.bc.dens             2.0    0.03             1.9    0.03
         dscf.client             0.0    0.00             0.0    0.00
         dscf.shloop          6994.1   93.72          6989.4   93.59
           shlupf.gs             3.8    0.05             3.8    0.05
          scf.symcar             2.7    0.04             2.6    0.04
        scf.makefock             2.9    0.04             4.5    0.06
          scf.newerg             0.1    0.00             0.1    0.00
          scf.newcnv           228.7    3.06           229.6    3.07
           scf.fdiag            52.2    0.70            52.2    0.70
         diag_tritrn            14.7    0.20            14.7    0.20
          diag_rdiag            37.2    0.50            37.2    0.50
          scf.modump            73.7    0.99            79.4    1.06
           ortho_all            25.5    0.34            25.5    0.34
            scf.post             5.9    0.08             6.4    0.09
        dscf.postscf             1.0    0.01             1.0    0.01
 


    ------------------------------------------------------------------------
         total  cpu-time :  2 hours  4 minutes and 30 seconds
         total wall-time :  2 hours  4 minutes and 36 seconds
    ------------------------------------------------------------------------


   ****  dscf : all done  ****


    2018-02-19 19:31:51.078 

