
   OpenMP run-time library returned nthreads = 30

 ricc2 (c-14-37.gp.local) : TURBOMOLE V7.2 ( 21471 ) 11 Oct 2017 at 17:04:51
 Copyright (C) 2017 TURBOMOLE GmbH, Karlsruhe


    2018-03-01 18:31:44.246 



                              R I C C 2 - PROGRAM

                          the quantum chemistry groups
                             at the universities in
                           Karlsruhe, Bochum & Mainz
                                   Germany



   *-----------------------------------------------------------------------*
   |                     program will use 30 thread(s)                     |
   *-----------------------------------------------------------------------*


              +--------------------------------------------------+
              | Atomic coordinate, charge and isotop information |
              +--------------------------------------------------+

                    atomic coordinates            atom    charge  isotop
          5.82419040   -0.61904476   -4.09973144    c      6.000     0
          7.21893589   -2.18932142   -5.66025584    c      6.000     0
          5.99310584   -4.58405427   -5.73302825    c      6.000     0
          3.87019927   -4.44732074   -4.21111498    c      6.000     0
          6.30480954    2.11410846   -3.35928439    c      6.000     0
          8.85158754    2.92571639   -4.55623210    c      6.000     0
          4.24438324    3.87332748   -4.33358737    c      6.000     0
          4.31842106    5.61013301   -6.28009020    c      6.000     0
          1.93964629   -6.45105896   -3.52074225    c      6.000     0
          1.85982000   -6.76096890   -0.61128358    c      6.000     0
          2.75528210   -8.98903858   -4.68437160    c      6.000     0
         -0.66734799   -5.77679576   -4.49562994    c      6.000     0
         -2.03456741   -6.69379149   -6.53359972    c      6.000     0
          3.78955893   -2.02485712   -3.23139234    n      7.000     0
          1.85800617    4.03586505   -3.23796400    n      7.000     0
         -2.18906671   -4.03774015   -3.28951464    n      7.000     0
         -4.15564276    4.36611957   -4.55167420    c      6.000     0
         -6.24088176    4.43394242   -6.13090535    c      6.000     0
         -7.49046877    2.05606852   -5.95473316    c      6.000     0
         -6.14734759    0.57016324   -4.27237140    c      6.000     0
         -2.31146548    6.43686163   -3.82556357    c      6.000     0
         -2.54212091    6.90425982   -0.94537824    c      6.000     0
         -3.07077018    8.89574883   -5.18390275    c      6.000     0
          0.39685660    5.80343941   -4.53472813    c      6.000     0
          1.91326139    6.81640297   -6.40547641    c      6.000     0
         -6.57119586   -2.14752546   -3.46327131    c      6.000     0
         -9.13988716   -3.04057583   -4.54419600    c      6.000     0
         -4.49096892   -3.83996324   -4.48894701    c      6.000     0
         -4.43915431   -5.47701404   -6.52939623    c      6.000     0
         -4.12199958    2.00133821   -3.43809300    n      7.000     0
          6.56632802    2.41057789   -0.50729781    c      6.000     0
          7.04902713    4.58623004    0.94462274    c      6.000     0
          6.48999450    0.41338003    1.10858581    n      7.000     0
          7.25800748    3.81716588    3.51626409    c      6.000     0
          6.88754349    1.19891753    3.57127019    c      6.000     0
         -6.67431101   -2.42194604   -0.59851895    c      6.000     0
         -6.86384502   -4.61753793    0.87727958    c      6.000     0
         -6.74670294   -0.40075877    0.99872995    n      7.000     0
         -7.08841571   -3.85555541    3.43839789    c      6.000     0
         -6.98848404   -1.20751412    3.47853116    c      6.000     0
          6.81366690   -0.53248565    5.68808226    c      6.000     0
         -6.88899101    0.51030418    5.59572846    c      6.000     0
          7.12928242    0.04960413    7.91251297    o      8.000     0
         -7.09566647   -0.10272938    7.82945932    o      8.000     0
          6.33845859   -2.94977961    4.92871738    o      8.000     0
         -6.47571038    2.94242374    4.83811164    o      8.000     0
         -6.14461399    4.80295834    6.85010157    c      6.000     0
          6.26154425   -4.82910017    6.95621897    c      6.000     0
         -4.58189401    6.95587191    5.79390771    c      6.000     0
          5.55415209   -7.33943957    5.78106426    c      6.000     0
         -7.30579126   -5.60785376    5.66113133    c      6.000     0
          7.66890660    5.52767490    5.74279796    c      6.000     0
          5.18205764    6.70937277    6.69731956    c      6.000     0
         -4.72650176   -6.36100655    6.78390332    c      6.000     0
         -6.85922483   -7.30255721   -0.04121608    c      6.000     0
          7.42619826    7.23858046   -0.02267806    c      6.000     0
          8.94052278   -1.68722974   -6.63680688    h      1.000     0
          6.61552987   -6.22932160   -6.77212015    h      1.000     0
          9.26788901    4.88808784   -4.08331538    h      1.000     0
          8.76985319    2.74466893   -6.61157908    h      1.000     0
         10.36765422    1.72510115   -3.83557650    h      1.000     0
          5.93731072    6.02239467   -7.45574660    h      1.000     0
          0.47835888   -8.20902892   -0.08672789    h      1.000     0
          1.33452364   -4.99817964    0.33121955    h      1.000     0
          3.72591517   -7.32271330    0.07683335    h      1.000     0
          2.85521857   -8.88061253   -6.74603155    h      1.000     0
          1.39425785  -10.45687939   -4.16986102    h      1.000     0
          4.61844155   -9.52604374   -3.96691936    h      1.000     0
         -1.40076431   -8.11882642   -7.85409015    h      1.000     0
          1.13020111    2.68659291   -2.02057002    h      1.000     0
         -1.66603341   -2.96724421   -1.76858408    h      1.000     0
         -6.83526706    6.02995675   -7.25866299    h      1.000     0
         -9.18433373    1.50391423   -6.95389164    h      1.000     0
         -1.32003759    8.48566110   -0.38321231    h      1.000     0
         -2.07893350    5.21139547    0.15345541    h      1.000     0
         -4.48591866    7.42319357   -0.47549853    h      1.000     0
         -3.01271469    8.67749255   -7.23770895    h      1.000     0
         -1.77762220   10.41569412   -4.64579458    h      1.000     0
         -4.98933941    9.43198190   -4.63495722    h      1.000     0
          1.37860160    8.29875262   -7.70554896    h      1.000     0
         -9.13665279   -2.92881023   -6.60744076    h      1.000     0
        -10.65638566   -1.84545356   -3.81202714    h      1.000     0
         -9.49267964   -4.99482523   -3.98645805    h      1.000     0
         -5.97179812   -5.81134608   -7.83819419    h      1.000     0
         -2.75743527    1.36354977   -2.22041139    h      1.000     0
          6.20645022   -1.40452760    0.57914962    h      1.000     0
         -6.65219272    1.43166537    0.45861267    h      1.000     0
         -5.21016734    3.87555593    8.43863063    h      1.000     0
         -8.02320974    5.42351338    7.45422858    h      1.000     0
          4.87822845   -4.20601993    8.35869991    h      1.000     0
          8.12551449   -4.88285790    7.84726747    h      1.000     0
         -2.73201262    6.25730895    5.19351981    h      1.000     0
         -4.30869097    8.38478462    7.26567817    h      1.000     0
         -5.52242773    7.84751286    4.18439544    h      1.000     0
          3.67238509   -7.26108869    4.92963859    h      1.000     0
          5.54105374   -8.79025852    7.25571837    h      1.000     0
          6.92009635   -7.89259767    4.33101599    h      1.000     0
         -8.30573496   -7.31961300    5.05861099    h      1.000     0
         -8.44149830   -4.71278838    7.13694536    h      1.000     0
          8.98772815    7.03674328    5.22162103    h      1.000     0
          8.52560970    4.44824492    7.27854515    h      1.000     0
          4.40008281    8.03747903    5.30436708    h      1.000     0
          5.49957745    7.79787891    8.42701643    h      1.000     0
          3.77735359    5.24107798    7.08725802    h      1.000     0
         -3.51019370   -7.21954975    5.34541592    h      1.000     0
         -4.97563200   -7.72863517    8.31774994    h      1.000     0
         -3.75432373   -4.70214713    7.54166998    h      1.000     0
         -6.06201122   -7.43597852   -1.94156833    h      1.000     0
         -8.77645722   -8.09381094   -0.09621437    h      1.000     0
         -5.73332354   -8.50570230    1.21024307    h      1.000     0
          6.33786291    7.58690995   -1.74880217    h      1.000     0
          9.41598177    7.60458777   -0.47167368    h      1.000     0
          6.88123140    8.64636001    1.39615231    h      1.000     0
          2.38191767   -1.35018166   -2.08267006    h      1.000     0
 
       center of nuclear mass  :   -0.03708581   -0.01112571   -0.33728481
       center of nuclear charge:   -0.03253617   -0.01150151   -0.30808246

              +--------------------------------------------------+
              |               basis set information              |
              +--------------------------------------------------+

              we will work with the 1s 3p 5d 7f 9g ... basis set
              ...i.e. with spherical basis functions...

   type   atoms  prim   cont   basis
   ---------------------------------------------------------------------------
    c       46     50     30   cc-pVTZ   [4s3p2d1f|18s5p2d1f]
    n        6     50     30   cc-pVTZ   [4s3p2d1f|18s5p2d1f]
    o        4     50     30   cc-pVTZ   [4s3p2d1f|18s5p2d1f]
    h       58     16     14   cc-pVTZ   [3s2p1d|5s2p1d]
   ---------------------------------------------------------------------------
   total:  114   3728   2492
   ---------------------------------------------------------------------------

   total number of primitive shells          :   86
   total number of contracted shells         :  908
   total number of cartesian basis functions : 2830
   total number of SCF-basis functions       : 2492


 symmetry group of the molecule :   c1 

 the group has the following generators :
   c1(z)

    1 symmetry operations found

 there are 1 real representations :   a   
WARNING: an $rij but no $rik flag found
WARNING: $rij is ignored by ricc2!


   =========================================================================


     restricted closed shell calculation for the wavefunction models:
               MP2        - Second Order Moeller Plesset PT


     global parameters for ricc2 program:

        hard restart (reuse of interm.) :  enabled 
        soft restart (reuse of vectors) :  disabled
        threshold for vector function   :    0.100000E-05
        convergence threshold energy    :    0.100000E-06
        linear dependence threshold     :    0.100000E-13
        global print level              :      1
        maximum number of iterations    :   300
        maximum number DIIS vectors     :    10
        max. dim. of reduced space      :   100
        core memory limit (MB)          : *****


     MP2 energy only: Energy will be calculated directly from T2 amplitudes!

     Scratch Directory : 


   =========================================================================

    der. integral neglect threshold  :  0.10E-07
    integral neglect threshold       :  0.12E-11
    integral storage threshold THIZE :  0.10E-04
    integral storage threshold THIME :         5


                  +------------------------------------------+
                  |     Auxiliary basis set information      |
                  +------------------------------------------+

              we will work with the 1s 3p 5d 7f 9g ... basis set
              ...i.e. with spherical basis functions...

   type   atoms  prim   cont   basis
   ---------------------------------------------------------------------------
    c       46     81     81   cc-pVTZ   [8s6p5d3f1g|8s6p5d3f1g]
    n        6     81     81   cc-pVTZ   [8s6p5d3f1g|8s6p5d3f1g]
    o        4     81     81   cc-pVTZ   [8s6p5d3f1g|8s6p5d3f1g]
    h       58     30     30   cc-pVTZ   [4s3p2d1f|4s3p2d1f]
   ---------------------------------------------------------------------------
   total:  114   6276   6276
   ---------------------------------------------------------------------------

   total number of primitive shells          :   79
   total number of contracted shells         : 1868
   total number of cartesian basis functions : 7686
   total number of SCF-basis functions       : 6276


 maximum number of shells which are related by symmetry :  1



     restored sucessfully symmetry projectors
     skipped calculation of symmetry projectors

 The symmetry information takes   1 MB

*---------------------------------------------------------------------*
|               simplified C1 algorithm will be applied               |
*---------------------------------------------------------------------*
  MOs are in ASCII format !


 reading orbital data $scfmo  from file mos
 orbital characterization : scfconv=7



              +--------------------------------------------+
              | list of orbitals that will be kept frozen: |
              +--------------------------------------------+
              |   irrep   index      energy     occ/vir    |
              +--------------------------------------------+
              |   a         1      -20.5974     occupied   |
              |   a         2      -20.5962     occupied   |
              |   a         3      -20.5280     occupied   |
              |   a         4      -20.5261     occupied   |
              |   a         5      -15.6192     occupied   |
              |   a         6      -15.6182     occupied   |
              |   a         7      -15.6165     occupied   |
              |   a         8      -15.6151     occupied   |
              |   a         9      -15.6143     occupied   |
              |   a        10      -15.6126     occupied   |
              |   a        11      -11.3793     occupied   |
              |   a        12      -11.3765     occupied   |
              |   a        13      -11.2900     occupied   |
              |   a        14      -11.2891     occupied   |
              |   a        15      -11.2854     occupied   |
              |   a        16      -11.2853     occupied   |
              |   a        17      -11.2814     occupied   |
              |   a        18      -11.2784     occupied   |
              |   a        19      -11.2722     occupied   |
              |   a        20      -11.2714     occupied   |
              |   a        21      -11.2711     occupied   |
              |   a        22      -11.2706     occupied   |
              |   a        23      -11.2700     occupied   |
              |   a        24      -11.2693     occupied   |
              |   a        25      -11.2691     occupied   |
              |   a        26      -11.2680     occupied   |
              |   a        27      -11.2673     occupied   |
              |   a        28      -11.2665     occupied   |
              |   a        29      -11.2564     occupied   |
              |   a        30      -11.2524     occupied   |
              |   a        31      -11.2394     occupied   |
              |   a        32      -11.2373     occupied   |
              |   a        33      -11.2363     occupied   |
              |   a        34      -11.2343     occupied   |
              |   a        35      -11.2305     occupied   |
              |   a        36      -11.2290     occupied   |
              |   a        37      -11.2285     occupied   |
              |   a        38      -11.2281     occupied   |
              |   a        39      -11.2268     occupied   |
              |   a        40      -11.2253     occupied   |
              |   a        41      -11.2240     occupied   |
              |   a        42      -11.2222     occupied   |
              |   a        43      -11.2212     occupied   |
              |   a        44      -11.2203     occupied   |
              |   a        45      -11.2197     occupied   |
              |   a        46      -11.2195     occupied   |
              |   a        47      -11.2189     occupied   |
              |   a        48      -11.2185     occupied   |
              |   a        49      -11.2163     occupied   |
              |   a        50      -11.2162     occupied   |
              |   a        51      -11.2159     occupied   |
              |   a        52      -11.2158     occupied   |
              |   a        53      -11.2149     occupied   |
              |   a        54      -11.2144     occupied   |
              |   a        55      -11.2126     occupied   |
              |   a        56      -11.2113     occupied   |
              +--------------------------------------------+



   Molecular Orbital Statistic:
   ============================

   -----------------------------
   orbitals in total:
   -----------------------------
    frozen occupied :     56
    active occupied :    148
    active virtual  :   2288
    frozen virtual  :      0
    all together    :   2492
   -----------------------------


     time in riccmos       cpu: 39.14 sec    wall: 34.46 sec    ratio:  1.1

     total memory allocated for calculation of (Q|P)**(-1/2) : 451 MiB


     calculation of (P|Q) ...
     time in lp2sym        cpu: 55.87 sec    wall:  1.91 sec    ratio: 29.3


     calculation of the Cholesky decomposition of (P|Q)**(-1) ...

  ----------------------------------------------------------------------------
  hard restart modus is stopped because no reference value was found for the
  (P|Q)**(-1/2), keyword: $chkCCVPQ_ISQR
  the calculation will proceed...
  ----------------------------------------------------------------------------
     time in invmetri      cpu:  9 min 45 s  wall:  0 min 22 s  ratio: 26.3

   threshold for RMS(d[D]) in SCF was     :  0.10E-06
   integral neglect threshold             :  0.12E-11
   derivative integral neglect threshold  :  0.10E-07


   =========================================================================

     Energy of reference wave function is -2402.6056765560002
     Maximum orbital residual is           0.2932735433782E-05


     Number of symmetry-nonredundant auxiliary basis functions:     6276

     Block lengths for integral files:
        frozen occupied (BOI):        3 MiB
        active occupied (BJI):        8 MiB
        active virtual  (BAI):      110 MiB
        frozen virtual  (BGI):        0 MiB
               general  (BTI):      120 MiB

   =========================================================================




   **************************************************************************
   *                                                                        *
   *          OPTIMIZATION OF THE GROUND STATE CLUSTER AMPLITUDES           *
   *                                                                        *
   **************************************************************************


   Iter.   MP2 energy       Norm(Omega)    Norm(t1)  Norm(t2)     cpu    wall
   ...........................................................................
    1  -2412.4248887291     ------          0.00000   1.06142 1581.71   67.55
   ...........................................................................


     time in total         cpu:   1 d  2 h 21 min  wall:   0 d  1 h  7 min  ratio: 23.4


     **********************************************************************
     *                                                                    *
     *   RHF  energy                             :  -2402.6056765560      *
     *   MP2 correlation energy (doubles)        :     -9.8192121731      *
     *                                                                    *
     *   Final MP2 energy                        :  -2412.4248887291      *
     *                                                                    *
     *    E(S)   =     -6.0674644092      E(T)   =     -3.7517477639      *
     *    E(OS)  =     -7.3180469972      E(SS)  =     -2.5011651759      *
     *                                                                    *
     *   SCS-MP2 energy                          :  -2412.2210546779      *
     *   (computed with  C(OS) =   1.2000  and  C(SS) =   0.3333)         *
     *                                                                    *
     *   SOS-MP2 energy                          :  -2412.1191376523      *
     *   (computed with  C(OS) =   1.3000)                                *
     *                                                                    *
     *   Norm of MP1 T2 amplitudes               :      1.0614167752      *
     *                                                                    *
     **********************************************************************



    ------------------------------------------------------------------------
         total  cpu-time :   1 days  4 hours 11 minutes and 37 seconds
         total wall-time :  1 hours 16 minutes and 14 seconds
    ------------------------------------------------------------------------

   ****  ricc2 : all done  ****


    2018-03-01 19:47:58.024 

