STARTING dscf ON 64 PROCESSORS!
RUNNING PROGRAM /beegfs/modfac/apps/TURBOMOLE/7.2.1-official/bin/em64t-unknown-linux-gnu_mpi/dscf_mpi.
PLEASE WAIT UNTIL dscf HAS FINISHED.
Look for the output in slave1.output.
MACHINEFILE is ./hostlist
 this is node-proc. number 1 running on node c-5-27.local
 the total number of node-proc. spawned is  65
  parallel platform: MPP or cluster with fast interconnect

   OpenMP run-time library returned nthreads =  8

 dscf (c-5-27.local) : TURBOMOLE V7.2 ( 21471 ) 7 Nov 2017 at 16:15:16
 Copyright (C) 2017 TURBOMOLE GmbH, Karlsruhe


    2018-03-08 22:40:39.892 


 SCF run will be profiled !



                             d s c f - program

                   idea & directorship : reinhart ahlrichs
                   program development : marco haeser
                                         michael baer
                           dft version : oliver treutler
           parallelized version : malte v. arnim, gina corongiu, GMD 


                          quantum chemistry group
                          universitaet  karlsruhe
                                  germany




                          References             
                                                 
          TURBOMOLE:                             
              R. Ahlrichs, M. Baer, M. Haeser, H. Horn, and
              C. Koelmel
              Electronic structure calculations on workstation
              computers: the program system TURBOMOLE
              Chem. Phys. Lett. 162: 165 (1989)
          Density Functional:                              
              O. Treutler and R. Ahlrichs                      
              Efficient Molecular Numerical Integration Schemes
              J. Chem. Phys. 102: 346 (1995)                   
          Parallel Version:                                
              Performance of parallel TURBOMOLE for Density    
              Functional Calculations                          
              M. v. Arnim and R. Ahlrichs                      
              J. Comp. Chem. 19: 1746 (1998)                   
                                         




              +--------------------------------------------------+
              | Atomic coordinate, charge and isotop information |
              +--------------------------------------------------+

                    atomic coordinates            atom    charge  isotop
          0.99983098    2.27022842    4.28976172    c      0.000     0
          2.48710807    0.09584961    4.39163542    c      0.000     0
          1.17615423   -2.19117405    4.48559974    c      0.000     0
         -1.45226929   -2.39010747    4.46730796    c      0.000     0
         -2.78628344   -0.12300939    4.35759329    c      0.000     0
         -1.63793068    2.25055548    4.23535275    c      0.000     0
         -3.11407188    4.62659342    4.11977596    c      0.000     0
         -3.08840784    6.26697104    6.18672877    c      0.000     0
         -4.41646638    8.53991405    6.18264081    c      0.000     0
         -5.82011739    9.20888476    4.06146507    c      0.000     0
         -5.87524501    7.60273202    1.97368050    c      0.000     0
         -4.53661592    5.33855564    1.98829002    c      0.000     0
         -2.75030830   -4.87040525    4.67298264    c      0.000     0
         -3.55171109   -6.25271537    2.55143576    c      0.000     0
         -4.75463168   -8.56476525    2.89864098    c      0.000     0
         -5.17724158   -9.54052768    5.30850749    c      0.000     0
         -4.38623898   -8.18377155    7.41816738    c      0.000     0
         -3.18404774   -5.86848176    7.07458722    c      0.000     0
          5.28649567    0.19888668    4.47054318    c      0.000     0
          6.75361331    0.96847579    2.39078996    c      0.000     0
          9.37121131    1.02923140    2.61221743    c      0.000     0
         10.57622705    0.33338673    4.84870459    c      0.000     0
          9.13917161   -0.44205910    6.91024675    c      0.000     0
          6.51753572   -0.50056906    6.69710277    c      0.000     0
          2.17055653    4.53148358    4.24585005    f      0.000     0
         -5.33166529   -0.22509561    4.40915431    f      0.000     0
          2.53078935   -4.34374056    4.59245764    f      0.000     0
         -1.77099151    5.65992826    8.27334732    f      0.000     0
         -4.36022207   10.06979858    8.19775174    f      0.000     0
         -7.10409534   11.39032407    4.03085675    f      0.000     0
         -7.23620931    8.31980689   -0.04731399    f      0.000     0
         -5.55104976   -9.94758328    0.91227972    f      0.000     0
         -6.33821694  -11.77446441    5.60951590    f      0.000     0
         -4.78461974   -9.10390981    9.74574967    f      0.000     0
         -2.43885163   -4.58425191    9.14502184    f      0.000     0
         10.84072745    1.74962522    0.65825925    f      0.000     0
         13.10484609    0.39960173    5.02748196    f      0.000     0
         10.27660790   -1.11001677    9.07483649    f      0.000     0
          5.16825874   -1.23490832    8.72936780    f      0.000     0
         -4.64886568    3.05669374   -1.24295190    i      0.000     0
         -2.98668180   -4.93812542   -1.21244390    i      0.000     0
          5.10080245    1.97086226   -1.14747160    i      0.000     0
          3.32504863    3.53778945   -5.88195488    n      7.000     0
          5.31113175    2.71334241   -7.63579180    c      6.000     0
          3.28614670    6.30798210   -5.69960578    c      6.000     0
          0.81458646    2.57125423   -6.60132364    c      6.000     0
          5.41722187    0.65317739   -7.66922896    h      1.000     0
          4.95804471    3.40575991   -9.57173914    h      1.000     0
          7.12955213    3.44209591   -6.98263474    h      1.000     0
          1.87201027    6.87726282   -4.30604713    h      1.000     0
          5.14008849    6.97231737   -5.07616450    h      1.000     0
          2.83153003    7.20013373   -7.52906246    h      1.000     0
          0.48896953   -0.25633627   -6.10784758    c      6.000     0
         -0.57917338    3.61545875   -5.48431276    h      1.000     0
          0.43811970    2.99824916   -8.61368357    h      1.000     0
         -2.05549796   -1.15671996   -7.12882732    c      6.000     0
          2.02220718   -1.31170110   -7.00935219    h      1.000     0
          0.59750572   -0.62164878   -4.07356776    h      1.000     0
         -2.68152854   -3.77552332   -6.43226601    n      7.000     0
         -3.57121007    0.04075393   -6.37395580    h      1.000     0
         -2.09912193   -0.93656318   -9.20897350    h      1.000     0
         -5.25288824   -4.39542434   -7.27486292    c      6.000     0
         -0.86146093   -5.61042528   -7.44374142    c      6.000     0
         -5.73228255   -6.30458081   -6.64998978    h      1.000     0
         -6.58817108   -3.06771482   -6.42407349    h      1.000     0
         -5.43249560   -4.29629915   -9.35048577    h      1.000     0
         -1.46669079   -7.50977586   -6.90544491    h      1.000     0
         -0.73504393   -5.50754310   -9.52417590    h      1.000     0
          1.00652163   -5.27402855   -6.63639349    h      1.000     0
 
       center of nuclear mass  :   -0.32559743    0.00391925    1.42073647
       center of nuclear charge:    0.27161050   -0.00333441   -6.76947074

              +--------------------------------------------------+
              |               basis set information              |
              +--------------------------------------------------+

              we will work with the 1s 3p 5d 7f 9g ... basis set
              ...i.e. with spherical basis functions...

   type   atoms  prim   cont   basis
   ---------------------------------------------------------------------------
    c       31     77     55   cc-pVQZ   [5s4p3d2f1g|21s6p3d2f1g]
    f       15     77     55   cc-pVQZ   [5s4p3d2f1g|21s6p3d2f1g]
    i        3    161     67   cc-pVQZ-PP   [6s6p4d2f1g|24s18p12d2f1g]
    n        2     77     55   cc-pVQZ   [5s4p3d2f1g|21s6p3d2f1g]
    h       18     32     30   cc-pVQZ   [4s3p2d1f|6s3p2d1f]
   ---------------------------------------------------------------------------
   total:   69   4755   3381
   ---------------------------------------------------------------------------

   total number of primitive shells          :  168
   total number of contracted shells         :  957
   total number of cartesian basis functions : 4239
   total number of SCF-basis functions       : 3381


 integral neglect threshold       :  0.79E-12
 integral storage threshold THIZE :  0.10E-04
 integral storage threshold THIME :         5


 DENSITY CONVERGENCE CHECK SWITCHED ON !
 SCF CONVERGENCE IF RMS(delta[D]) <     0.1000000000E-06


 symmetry group of the molecule :   c1 

 the group has the following generators :
   c1(z)

    1 symmetry operations found

 there are 1 real representations :   a   

 maximum number of shells which are related by symmetry :  1


    mo occupation :
   irrep   mo's   occupied
    a     3381       37
 
 number of basis functions   :                   3381
 number of occupied orbitals :                     37
 

 automatic virtual orbital shift switched on 
      shift if e(lumo)-e(homo) < 0.10000000    


 keyword $2e-ints_shell_statistics missing in file <control>

 ! One task per shell generated
  No pre-computed optimal task distribution found
  ... using automatic task generation

          ------------------------
          nuclear repulsion energy  :   483.427208906    
          ------------------------


         -----------------
         -S,T+V- integrals
         -----------------

 1e-integrals will be neglected if expon. factor < 0.788384E-13
 
   Difference densities algorithm switched on.
   The maximal number of linear combinations of
   difference densities is                    20 .

 DIIS switched on: error vector is FDS-SDF
 Max. Iterations for DIIS is     :   5
 DIIS matrix (see manual) 
    Scaling factor of diagonals  :  1.200
    threshold for scaling factor :  0.000

 scf convergence criterion : increment of total energy < .1000000D-06
                  and increment of one-electron energy < .1000000D-03

  MOs are in ASCII format !


 reading orbital data $scfmo  from file mos
 orbital characterization : expanded
 mo provided and orthogonalized by Cholesky decomposition

 DSCF restart information will be dumped onto file mos

 
                                              current damping :  0.300
 ITERATION  ENERGY          1e-ENERGY        2e-ENERGY     RMS[dD(SAO)]   TOL
   1  -383.11353766989    -1467.7909336     601.25018703    0.000D+00 0.786D-12
          max. resid. norm for Fia-block=  2.811D-01 for orbital      1a         
          max. resid. fock norm         =  3.664D+01 for orbital   3182a         
          Delta Eig. =  3269.2246220625 eV 
 
                                              current damping :  0.250
 ITERATION  ENERGY          1e-ENERGY        2e-ENERGY     RMS[dD(SAO)]   TOL
   2  -384.38349007685    -1476.6236283     608.81292929    0.862D-03 0.552D-12
          Norm of current diis error:  2.8087    
          max. resid. norm for Fia-block=  1.001D-01 for orbital     11a         
          max. resid. fock norm         =  1.645D-01 for orbital   2847a         
          Delta Eig. =   784.5613769792 eV 
 
                                              current damping :  0.150
 ITERATION  ENERGY          1e-ENERGY        2e-ENERGY     RMS[dD(SAO)]   TOL
   3  -384.54171987435    -1478.2618206     610.29289185    0.292D-03 0.421D-12
          Norm of current diis error: 0.94467    
          max. resid. norm for Fia-block=  4.308D-02 for orbital     37a         
          max. resid. fock norm         =  4.524D-02 for orbital     37a         
          Delta Eig. =   170.5756247926 eV 
 
                                              current damping :  0.100
 ITERATION  ENERGY          1e-ENERGY        2e-ENERGY     RMS[dD(SAO)]   TOL
   4  -384.56873616004    -1478.5406854     610.54474036    0.123D-03 0.358D-12
          Norm of current diis error: 0.26261    
          max. resid. norm for Fia-block=  1.092D-02 for orbital     17a         
          max. resid. fock norm         =  1.727D-02 for orbital   2777a         
          Delta Eig. =    23.2538489860 eV 
 
                                              current damping :  0.100
 ITERATION  ENERGY          1e-ENERGY        2e-ENERGY     RMS[dD(SAO)]   TOL
   5  -384.57135831610    -1478.9095834     610.91101616    0.331D-04 0.332D-12
          Norm of current diis error: 0.82854E-01
          max. resid. norm for Fia-block=  7.110D-03 for orbital     36a         
          max. resid. fock norm         =  7.865D-03 for orbital     37a         
 mo-orthogonalization: Cholesky decomposition
          Delta Eig. =     2.1193245591 eV 
 
                                              current damping :  0.150
 ITERATION  ENERGY          1e-ENERGY        2e-ENERGY     RMS[dD(SAO)]   TOL
   6  -384.57170699018    -1478.7830837     610.78416781    0.155D-04 0.313D-12
          Norm of current diis error: 0.33095E-01
          max. resid. norm for Fia-block=  2.288D-03 for orbital     36a         
          max. resid. fock norm         =  2.310D-03 for orbital     36a         
          Delta Eig. =     0.1847146023 eV 
 
                                              current damping :  0.200
 ITERATION  ENERGY          1e-ENERGY        2e-ENERGY     RMS[dD(SAO)]   TOL
   7  -384.57176176934    -1478.8199734     610.82100275    0.583D-05 0.298D-12
          Norm of current diis error: 0.97337E-02
          max. resid. norm for Fia-block=  1.151D-03 for orbital     36a         
          max. resid. fock norm         =  1.179D-03 for orbital     36a         
          Delta Eig. =     0.0234340702 eV 
 
                                              current damping :  0.250
 ITERATION  ENERGY          1e-ENERGY        2e-ENERGY     RMS[dD(SAO)]   TOL
   8  -384.57176882998    -1478.8144491     610.81547135    0.252D-05 0.285D-12
          Norm of current diis error: 0.34368E-02
          max. resid. norm for Fia-block=  4.114D-04 for orbital     36a         
          max. resid. fock norm         =  4.196D-04 for orbital     36a         
          Delta Eig. =     0.0039410094 eV 
 
                                              current damping :  0.300
 ITERATION  ENERGY          1e-ENERGY        2e-ENERGY     RMS[dD(SAO)]   TOL
   9  -384.57176967768    -1478.8145901     610.81561154    0.886D-06 0.274D-12
          Norm of current diis error: 0.11544E-02
          max. resid. norm for Fia-block=  1.390D-04 for orbital     36a         
          max. resid. fock norm         =  1.422D-04 for orbital     36a         
          Delta Eig. =     0.0009545880 eV 
 
                                              current damping :  0.350
 ITERATION  ENERGY          1e-ENERGY        2e-ENERGY     RMS[dD(SAO)]   TOL
  10  -384.57176977141    -1478.8142888     610.81531017    0.294D-06 0.264D-12
          Norm of current diis error: 0.40904E-03
          max. resid. norm for Fia-block=  4.629D-05 for orbital     36a         
          max. resid. fock norm         =  4.719D-05 for orbital     36a         
 mo-orthogonalization: Cholesky decomposition
          Delta Eig. =     0.0003530507 eV 

 ENERGY & DENSITY CONVERGED !

 
                                              current damping :  0.400
 ITERATION  ENERGY          1e-ENERGY        2e-ENERGY     RMS[dD(SAO)]   TOL
  11  -384.57176978235    -1478.8143349     610.81535621    0.992D-07 0.256D-12
          max. resid. norm for Fia-block=  8.885D-06 for orbital     36a         
          max. resid. fock norm         =  9.216D-06 for orbital     36a         

 convergence criteria satisfied after    11 iterations


                  ------------------------------------------ 
                 |  total energy      =   -384.57176978235  |
                  ------------------------------------------ 
                 :  kinetic energy    =    383.98941325682  :
                 :  potential energy  =   -768.56118303917  :
                 :  virial theorem    =      1.99848570131  :
                 :  wavefunction norm =      1.00000000000  :
                  .......................................... 


 <geterg> : there is no data group $energy 


 <skperg> : $end is missing 


 orbitals $scfmo  will be written to file mos

    irrep                 33a         34a         35a         36a         37a   
 eigenvalues H         -0.48477    -0.46434    -0.46134    -0.35663    -0.34986
            eV         -13.1914    -12.6355    -12.5539     -9.7045     -9.5202
 occupation              2.0000      2.0000      2.0000      2.0000      2.0000 

    irrep                 38a         39a         40a         41a         42a   
 eigenvalues H          0.04264     0.06228     0.06465     0.08270     0.09023
            eV           1.1602      1.6948      1.7592      2.2504      2.4553
 
 
 
 
 ==============================================================================
                           electrostatic moments
 ==============================================================================

 reference point for electrostatic moments:    0.00000   0.00000   0.00000

 
              nuc           elec       ->  total
 ------------------------------------------------------------------------------
                          charge      
 ------------------------------------------------------------------------------
          74.000000     -74.000000       0.000000
 
 ------------------------------------------------------------------------------
                       dipole moment  
 ------------------------------------------------------------------------------
   x      20.099177     -20.156785      -0.057608
   y      -0.246746       0.374109       0.127363
   z    -500.940835     500.417362      -0.523473
 
   | dipole moment | =     0.5418 a.u. =     1.3772 debye 
 
 ------------------------------------------------------------------------------
                     quadrupole moment
 ------------------------------------------------------------------------------
  xx     836.857789    -880.635538     -43.777748
  yy    1202.015558   -1245.009538     -42.993981
  zz    3467.742151   -3507.885445     -40.143294
  xy     759.188832    -759.124852       0.063980
  xz     -94.059345      93.708582      -0.350764
  yz     118.459434    -118.227680       0.231754
 
     1/3  trace=     -42.305008
     anisotropy=       3.393744
 
 ==============================================================================
 

    dscf profiling
  --------------------------------------------------------------------
             module   cpu total (s)       %  wall total (s)       %

          dscf.total          8993.4  100.00          4450.8  100.00
        dscf.prepare            94.9    1.06            29.3    0.66
      prepare.oneint             1.2    0.01             0.7    0.02
     prepare.moinput             0.1    0.00             0.1    0.00
     moinput_orthmos            93.0    1.03            27.8    0.63
            dscf.scf          8896.5   98.92          4419.4   99.29
             scf.pre             0.0    0.00             0.0    0.00
        scf.makedmat            57.5    0.64            11.0    0.25
          scf.shloop          7331.7   81.52          3793.1   85.22
          shloop_omp          7329.8   81.50          3791.2   85.18
          scf.symcar             2.7    0.03             2.2    0.05
        scf.makefock            19.7    0.22             3.7    0.08
          scf.newerg             1.7    0.02             0.2    0.01
          scf.newcnv           294.9    3.28            36.9    0.83
           scf.fdiag           640.8    7.12            80.5    1.81
         diag_tritrn           184.9    2.06            23.1    0.52
          diag_rdiag           448.5    4.99            56.5    1.27
          scf.modump           432.0    4.80           424.3    9.53
           ortho_all            67.5    0.75            24.7    0.55
            scf.post            47.3    0.53            42.6    0.96
        dscf.postscf             2.0    0.02             2.1    0.05
 


    ------------------------------------------------------------------------
         total  cpu-time :  2 hours 29 minutes and 54 seconds
         total wall-time :  1 hours 14 minutes and 12 seconds
    ------------------------------------------------------------------------

   ****  dscf : all done  ****


    2018-03-08 23:54:50.755 

