 this is node-proc. number 0 running on node c-5-27.local
 the total number of node-proc. spawned is  65

 dscfserver (c-5-27.local) : TURBOMOLE V7.2 ( 21471 ) 7 Nov 2017 at 16:15:16
 Copyright (C) 2017 TURBOMOLE GmbH, Karlsruhe


    2018-03-08 22:40:39.466 

 
    0:00:30 ---- Start global counter...
    0:09:46 ---- ... finished.
 
    0:10:42 ---- Start global counter...
    0:20:01 ---- ... finished.
 
    0:20:58 ---- Start global counter...
    0:29:21 ---- ... finished.
 
    0:30:17 ---- Start global counter...
    0:37:41 ---- ... finished.
 
    0:38:37 ---- Start global counter...
    0:45:10 ---- ... finished.
 
    0:46:18 ---- Start global counter...
    0:52:05 ---- ... finished.
 
    0:53:00 ---- Start global counter...
    0:58:04 ---- ... finished.
 
    0:59:00 ---- Start global counter...
    1:03:08 ---- ... finished.
 
    1:04:04 ---- Start global counter...
    1:07:15 ---- ... finished.
 
    1:08:11 ---- Start global counter...
    1:10:37 ---- ... finished.
 
    1:11:44 ---- Start global counter...
    1:13:23 ---- ... finished.
 
    1:14:10 ---- ByeBye Tag received


 ! Total wall-clock time in seconds  :     4450.2
 ! Time (sec) spent in global counter:     3788.6
 ! So-called SERIAL wall-clock time  :      661.6

  *** Regular termination of server ***
 total turnaround time of dscfserver  4451.22 sec
 cpu elapsed by dscfserver process     971.05 sec 

   ***  dscf server : all done  ***


    2018-03-08 23:54:50.683 

