 operating system is UNIX !

 ridft (c-12-254.gp.local) : TURBOMOLE V7.2 ( 21454 ) 4 Oct 2017 at 12:48:15
 Copyright (C) 2017 TURBOMOLE GmbH, Karlsruhe


    2018-04-28 11:07:54.513 



                                  r i d f t

                        DFT program with RI approximation 
                                for coulomb part 




                                                 
                                 References:     
                                                 
          TURBOMOLE:                             
              R. Ahlrichs, M. Baer, M. Haeser, H. Horn, and
              C. Koelmel
              Electronic structure calculations on workstation
              computers: the program system TURBOMOLE
              Chem. Phys. Lett. 162: 165 (1989)
          Density Functional:                              
              O. Treutler and R. Ahlrichs                      
              Efficient Molecular Numerical Integration Schemes
              J. Chem. Phys. 102: 346 (1995)                   
          Parallel Version:                                
              Performance of parallel TURBOMOLE for Density    
              Functional Calculations                          
              M. v. Arnim and R. Ahlrichs                      
              J. Comp. Chem. 19: 1746 (1998)                   
          RI-J Method:                                     
              Auxiliary Basis Sets to approximate Coulomb      
              Potentials                                       
              Chem. Phys. Lett. 240: 283 (1995)                
              K. Eichkorn, O. Treutler, H. Oehm, M. Haeser     
              and R. Ahlrichs                                  
              Chem. Phys. Lett. 242: 652 (1995)                
                                                           
              Auxiliary Basis Sets for Main Row Atoms and their
              Use to approximate Coulomb Potentials            
              K. Eichkorn, F. Weigend, O. Treutler and         
              R. Ahlrichs                                      
              Theo. Chem. Acc. 97: 119 (1997)                   
                                                           
              Accurate Coulomb-fitting basis sets for H to Rn 
              F. Weigend                                        
              Phys. Chem. Chem. Phys. 8: 1057 (2006)            
                                                           
          Multipole accelerated RI-J (MARI-J):             
              Fast evaluation of the Coulomb potential for     
              electron densities using multipole accelerated   
              resolution of identity approximation             
              M. Sierka, A. Hogekamp and R. Ahlrichs           
              J. Chem. Phys. 118: 9136 (2003)                  
          RI-JK Method:                                     
              A fully direct RI-HF algorithm: Implementation,
              optimised auxiliary basis sets, demonstration of
              accuracy and efficiency                         
              F. Weigend                                      
              Phys. Chem. Chem. Phys. 4: 4285 (2002)           
          Two-component HF and DFT with spin-orbit coupling:  
              Self-consistent treatment of spin-orbit         
              interactions with efficient Hartree-Fock and    
              density functional methods                      
              M. K. Armbruster, F. Weigend, C. van Wüllen and 
              W. Klopper                                      
              Phys. Chem. Chem. Phys. 10: 1748 (2008)         
          Relativistic all-electron 2c calculations           
              An efficient implementation of two-component    
              relativistic exact-decoupling methods for large 
              molecules                                       
              D. Peng, N. Middendorf, F. Weigend, M. Reiher   
              J. Chem. Phys. 138, 184105 (2013)               
                                         




              +--------------------------------------------------+
              |      general information about current run       |
              +--------------------------------------------------+

 

 DENSITY CONVERGENCE CHECK SWITCHED ON !
 SCF CONVERGENCE IF RMS(delta[D]) <     0.1000000000E-06

 A HF calculation using the RI-JK approximation will be carried out.
 Allocatable memory for RI due to $ricore (MB):                   500


              +--------------------------------------------------+
              | Atomic coordinate, charge and isotop information |
              +--------------------------------------------------+

                    atomic coordinates            atom    charge  isotop
          2.49965928   -0.01960775    1.92597813    n      7.000     0
          1.23075219   -2.17128026    1.50573604    c      6.000     0
          2.26846206   -3.90328240    1.83997498    h      1.000     0
         -1.27118344   -2.25767797    0.69288118    c      6.000     0
         -2.18677903   -4.05784939    0.39016055    h      1.000     0
         -2.54583291    0.00592238    0.28751051    c      6.000     0
         -4.48877330    0.01588395   -0.34448388    h      1.000     0
         -1.25583256    2.25650426    0.71620996    c      6.000     0
         -2.15925084    4.06585471    0.43221912    h      1.000     0
          1.24513254    2.14479861    1.52852363    c      6.000     0
          2.29432163    3.86621044    1.88110579    h      1.000     0
          0.85059422    0.00245861   12.81415679    n      7.000     0
          2.49591832   -0.00814803   10.88774535    c      6.000     0
          4.47608027   -0.00578866   11.40610250    h      1.000     0
          1.79032154   -0.02150416    8.35205777    c      6.000     0
          3.20281749   -0.02937302    6.87599336    h      1.000     0
         -0.77223886   -0.02417636    7.76167810    c      6.000     0
         -1.39533576   -0.03448571    5.81472833    h      1.000     0
         -2.50720259   -0.01337641    9.73676243    c      6.000     0
         -4.51872164   -0.01498152    9.38010349    h      1.000     0
         -1.60844165   -0.00030394   12.21033618    c      6.000     0
         -2.91647921    0.00835692   13.78483937    h      1.000     0
 
       center of nuclear mass  :    0.01921662   -0.00886364    5.70832550
       center of nuclear charge:   -0.01385153   -0.00886845    5.67521827

              +--------------------------------------------------+
              |               basis set information              |
              +--------------------------------------------------+

              we will work with the 1s 3p 5d 7f 9g ... basis set
              ...i.e. with spherical basis functions...

   type   atoms  prim   cont   basis
   ---------------------------------------------------------------------------
    n        2     77     57   def2-QZVP   [7s4p3d2f1g|15s8p3d2f1g]
    c       10     77     57   def2-QZVP   [7s4p3d2f1g|15s8p3d2f1g]
    h       10     33     30   def2-QZVP   [4s3p2d1f|7s3p2d1f]
   ---------------------------------------------------------------------------
   total:   22   1254    984
   ---------------------------------------------------------------------------

   total number of primitive shells          :   71
   total number of contracted shells         :  304
   total number of cartesian basis functions : 1214
   total number of SCF-basis functions       :  984


 integral neglect threshold       :  0.27E-13
 integral storage threshold THIZE :  0.10E-04
 integral storage threshold THIME :         5

 RI-JK AUXILIARY BASIS SET information:

              we will work with the 1s 3p 5d 7f 9g ... basis set
              ...i.e. with spherical basis functions...

   type   atoms  prim   cont   basis
   ---------------------------------------------------------------------------
    n        2     97     77   def2-QZVP   [10s8p4d2f1g|14s10p6d2f1g]
    c       10     97     75   def2-QZVP   [10s8p5d1f1g|14s10p6d2f1g]
    h       10     20     18   def2-QZVP   [2s2p2d|4s2p2d]
   ---------------------------------------------------------------------------
   total:   22   1364   1084
   ---------------------------------------------------------------------------

   total number of primitive shells          :   74
   total number of contracted shells         :  360
   total number of cartesian basis functions : 1276
   total number of SCF-basis functions       : 1084


 symmetry group of the molecule :   c1 

 the group has the following generators :
   c1(z)

    1 symmetry operations found

 there are 1 real representations :   a   

 maximum number of shells which are related by symmetry :  1


    mo occupation :
   irrep   mo's   occupied
    a      984       42
 
 number of basis functions   :                    984
 number of occupied orbitals :                     42
 

 biggest AO integral is expected to be     6.129561670
  
           ------------------------
               RI-JK - INFORMATION
           ------------------------
 Contributions to RI integral batches: 
  neglected integral batches:                 14039
  direct contribution:                        32321
  memory contribution:                     0
 Memory core needed for (P|Q) and Cholesky      9 MByte
 Memory core minimum needed except of (P|Q)     1 MByte
 Total minimum memory core needed (sum)        10 MByte
  
 ****************************************
 Memory allocated for RI-J    10 MByte
 ****************************************
                                            
 total memory allocated for calculation of  (Q|P)**(-1/2) :   14 MiB

  forming (P|Q)**(-1/2) 
 eigenvalues of original matrix 
 smallest =0.5665985832090E-07  largest = 41.87381295750    
  The symmetry information takes                      1  MB

          ------------------------
          nuclear repulsion energy  :   601.343877675    
          ------------------------


         -----------------
         -S,T+V- integrals
         -----------------

 1e-integrals will be neglected if expon. factor < 0.275285E-14
 
   Difference densities algorithm switched on.
   The maximal number of linear combinations of
   difference densities is                    20 .

 DIIS switched on: error vector is FDS-SDF
 Max. Iterations for DIIS is     :   5
 DIIS matrix (see manual) 
    Scaling factor of diagonals  :  1.200
    threshold for scaling factor :  0.000

 scf convergence criterion : increment of total energy < .1000000D-08
                  and increment of one-electron energy < .1000000D-05

  MOs are in ASCII format !


 automatic virtual orbital shift switched on 
      shift if e(lumo)-e(homo) < 0.10000000    


 reading orbital data $scfmo  from file mos
 orbital characterization : scfconv=9

 DSCF restart information will be dumped onto file mos


 Starting SCF iterations

 
 BLOCKING OF MOS FOR RI-K
 
 
 occupied MOs partitioned into blocks of maximum length 42
 this requires 423 MiB core memory.
 
            MULTIPLE PASS Statistics 
 ----------------------------------------------------
  pass       irrep     lambda      batch : MO  to  MO
 ----------------------------------------------------
   1       1  ->  1    1  -> 42             1  ->  42



 ENERGY & DENSITY CONVERGED !


 ITERATION  ENERGY          1e-ENERGY        2e-ENERGY     RMS[dD(SAO)]   TOL
   1  -493.50673419015    -1862.1233693     767.27275747    0.000D+00 0.275D-13
                           RI-K = -68.6339720300     Coul =  835.906729497    
                            current damping = 0.700
 
          max. resid. norm for Fia-block=  9.770D-02 for orbital      2a         
          max. resid. fock norm         =  5.928D-01 for orbital    972a         

 End of SCF iterations

   convergence criteria satisfied after     1 iterations


                  ------------------------------------------ 
                 |  total energy      =   -493.50673419015  |
                  ------------------------------------------ 
                 :  kinetic energy    =    494.70393097570  :
                 :  potential energy  =   -988.21066516585  :
                 :  virial theorem    =      2.00242589757  :
                 :  wavefunction norm =      1.00000000000  :
                  .......................................... 


 orbitals $scfmo  will be written to file mos

    irrep                 38a         39a         40a         41a         42a   
 eigenvalues H         -0.36691    -0.34713    -0.32936    -0.41509    -0.39696
            eV          -9.9842     -9.4459     -8.9623    -11.2954    -10.8020
 occupation              2.0000      2.0000      2.0000      2.0000      2.0000 

    irrep                 43a         44a         45a         46a         47a   
 eigenvalues H          0.10731     0.12328     0.12556     0.14637     0.11078
            eV           2.9200      3.3547      3.4167      3.9830      3.0146
 
 
 
 
 ==============================================================================
                           electrostatic moments
 ==============================================================================

 reference point for electrostatic moments:    0.00000   0.00000   0.00000

 
              nuc           elec       ->  total
 ------------------------------------------------------------------------------
                          charge      
 ------------------------------------------------------------------------------
          84.000000     -84.000000       0.000000
 
 ------------------------------------------------------------------------------
                       dipole moment  
 ------------------------------------------------------------------------------
   x      -1.163528       0.132317      -1.031212
   y      -0.744950       0.745396       0.000446
   z     476.718335    -478.050001      -1.331666
 
   | dipole moment | =     1.6843 a.u. =     4.2810 debye 
 
 ------------------------------------------------------------------------------
                     quadrupole moment
 ------------------------------------------------------------------------------
  xx     339.833460    -389.537484     -49.704024
  yy     180.215085    -229.891065     -49.675980
  zz    4660.681655   -4735.708998     -75.027343
  xy      -0.239004       0.252627       0.013624
  xz      60.580607     -64.929684      -4.349077
  yz      -3.442535       3.450071       0.007536
 
     1/3  trace=     -58.135782
     anisotropy=      26.433418
 
 ==============================================================================
 


    ------------------------------------------------------------------------
         total  cpu-time :  1 minutes and 28 seconds
         total wall-time :  1 minutes and 32 seconds
    ------------------------------------------------------------------------

   ****  ridft : all done  ****


    2018-04-28 11:09:26.196 

