
   OpenMP run-time library returned nthreads = 28
 operating system is UNIX !

 dscf (c-19-414) : TURBOMOLE V7.3 ( 22142 ) 4 Jul 2018 at 18:12:42
 Copyright (C) 2018 TURBOMOLE GmbH, Karlsruhe


    2019-04-02 15:40:55.648 



                             d s c f - program

                   idea & directorship : reinhart ahlrichs
                   program development : marco haeser
                                         michael baer
                           dft version : oliver treutler


                          quantum chemistry group
                          universitaet  karlsruhe
                                  germany




                          References             
                                                 
          TURBOMOLE:                             
              R. Ahlrichs, M. Baer, M. Haeser, H. Horn, and
              C. Koelmel
              Electronic structure calculations on workstation
              computers: the program system TURBOMOLE
              Chem. Phys. Lett. 162: 165 (1989)
          Density Functional:                              
              O. Treutler and R. Ahlrichs                      
              Efficient Molecular Numerical Integration Schemes
              J. Chem. Phys. 102: 346 (1995)                   
          Parallel Version:                                
              Performance of parallel TURBOMOLE for Density    
              Functional Calculations                          
              M. v. Arnim and R. Ahlrichs                      
              J. Comp. Chem. 19: 1746 (1998)                   
                                         




              +--------------------------------------------------+
              | Atomic coordinate, charge and isotop information |
              +--------------------------------------------------+

                    atomic coordinates            atom    charge  isotop
         -0.39453209   -0.40982618   -1.95096453    o      8.000     0
          1.34383326   -0.73111946   -1.46257697    h      1.000     0
         -1.93162773   -1.40061046   -0.01030692    c      6.000     0
         -3.88809486   -1.01800933   -0.50757525    h      1.000     0
         -1.71538636   -3.44275281    0.20510540    h      1.000     0
         -1.55832695   -0.52060957    1.82291575    h      1.000     0
          3.72935655    3.59657218    0.81693084    c      6.000     0
          4.68630182    5.41344764    0.75103541    h      1.000     0
          2.95354059    3.32041540    2.70264440    h      1.000     0
          2.16154942    3.57859470   -0.50872250    h      1.000     0
          5.45964721    1.41405412    0.21993572    c      6.000     0
          4.65803523   -0.70227058   -0.31879031    o      8.000     0
          7.96568280    1.90864132    0.33180630    n      7.000     0
          8.52884471    3.62910116    0.89435356    h      1.000     0
          9.82216115   -0.05688419   -0.08911852    c      6.000     0
          9.14836572   -1.28697746   -1.58611602    h      1.000     0
         11.59920148    0.80015165   -0.65322766    h      1.000     0
         10.12359158   -1.19927448    1.59665994    h      1.000     0
 
       center of nuclear mass  :    4.07713128    0.57285919   -0.16290077
       center of nuclear charge:    4.06428359    0.59181849   -0.11993538

              +--------------------------------------------------+
              |               basis set information              |
              +--------------------------------------------------+

              we will work with the 1s 3p 5d 7f 9g ... basis set
              ...i.e. with spherical basis functions...

   type   atoms  prim   cont   basis
   ---------------------------------------------------------------------------
    o        2     50     30   cc-pVTZ   [4s3p2d1f|18s5p2d1f]
    h       11     16     14   cc-pVTZ   [3s2p1d|5s2p1d]
    c        4     50     30   cc-pVTZ   [4s3p2d1f|18s5p2d1f]
    n        1     50     30   cc-pVTZ   [4s3p2d1f|18s5p2d1f]
   ---------------------------------------------------------------------------
   total:   18    526    364
   ---------------------------------------------------------------------------

   total number of primitive shells          :   86
   total number of contracted shells         :  136
   total number of cartesian basis functions :  410
   total number of SCF-basis functions       :  364


 integral neglect threshold       :  0.81E-13
 integral storage threshold THIZE :  0.10E-04
 integral storage threshold THIME :         5


 DENSITY CONVERGENCE CHECK SWITCHED ON !
 SCF CONVERGENCE IF RMS(delta[D]) <     0.1000000000E-06


 symmetry group of the molecule :   c1 

 the group has the following generators :
   c1(z)

    1 symmetry operations found

 there are 1 real representations :   a   

 maximum number of shells which are related by symmetry :  1


    mo occupation :
   irrep   mo's   occupied
    a      364       29
 
 number of basis functions   :                    364
 number of occupied orbitals :                     29
 

 automatic virtual orbital shift switched on 
      shift if e(lumo)-e(homo) < 0.10000000    


          ------------------------
          nuclear repulsion energy  :   313.959754172    
          ------------------------


         -----------------
         -S,T+V- integrals
         -----------------

 1e-integrals will be neglected if expon. factor < 0.815113E-14
 
   Difference densities algorithm switched on.
   The maximal number of linear combinations of
   difference densities is                    20 .

 DIIS switched on: error vector is FDS-SDF
 Max. Iterations for DIIS is     :   5
 DIIS matrix (see manual) 
    Scaling factor of diagonals  :  1.200
    threshold for scaling factor :  0.000

 scf convergence criterion : increment of total energy < .1000000D-08
                  and increment of one-electron energy < .1000000D-05

  MOs are in ASCII format !


 reading orbital data $scfmo  from file mos
 orbital characterization : scfconv=9

 DSCF restart information will be dumped onto file mos

 
                                              current damping :  0.700
 ITERATION  ENERGY          1e-ENERGY        2e-ENERGY     RMS[dD(SAO)]   TOL
   1  -362.11940407836    -1117.4416621     441.36250390    0.000D+00 0.813D-13
          max. resid. norm for Fia-block=  1.033D-01 for orbital      1a         
          max. resid. fock norm         =  1.743D-01 for orbital    359a         
          Delta Eig. =    28.7425537928 eV 
 
                                              current damping :  0.650
 ITERATION  ENERGY          1e-ENERGY        2e-ENERGY     RMS[dD(SAO)]   TOL
   2  -362.18171831546    -1116.7795170     440.63804446    0.100D-02 0.517D-13
          Norm of current diis error: 0.50280    
          max. resid. norm for Fia-block=  4.759D-02 for orbital      2a         
          max. resid. fock norm         =  7.328D-02 for orbital    360a         
          Delta Eig. =    12.1874886381 eV 
 
                                              current damping :  0.600
 ITERATION  ENERGY          1e-ENERGY        2e-ENERGY     RMS[dD(SAO)]   TOL
   3  -362.19429622396    -1116.8674224     440.71337197    0.472D-03 0.397D-13
          Norm of current diis error: 0.22513    
          max. resid. norm for Fia-block=  2.263D-02 for orbital      1a         
          max. resid. fock norm         =  2.730D-02 for orbital    359a         
          Delta Eig. =     5.5240100799 eV 
 
                                              current damping :  0.450
 ITERATION  ENERGY          1e-ENERGY        2e-ENERGY     RMS[dD(SAO)]   TOL
   4  -362.19713098810    -1116.8789783     440.72209310    0.238D-03 0.350D-13
          Norm of current diis error: 0.93722E-01
          max. resid. norm for Fia-block=  7.744D-03 for orbital      2a         
          max. resid. fock norm         =  1.170D-02 for orbital    360a         
          Delta Eig. =     2.0583604588 eV 
 
                                              current damping :  0.500
 ITERATION  ENERGY          1e-ENERGY        2e-ENERGY     RMS[dD(SAO)]   TOL
   5  -362.19766868496    -1116.8538897     440.69646683    0.105D-03 0.322D-13
          Norm of current diis error: 0.33829E-01
          max. resid. norm for Fia-block=  2.925D-03 for orbital     18a         
          max. resid. fock norm         =  3.435D-03 for orbital     33a         
 mo-orthogonalization: Cholesky decomposition
          Delta Eig. =     0.6725666464 eV 
 
                                              current damping :  0.550
 ITERATION  ENERGY          1e-ENERGY        2e-ENERGY     RMS[dD(SAO)]   TOL
   6  -362.19774552886    -1116.8544391     440.69693940    0.392D-04 0.306D-13
          Norm of current diis error: 0.13645E-01
          max. resid. norm for Fia-block=  1.319D-03 for orbital     18a         
          max. resid. fock norm         =  1.517D-03 for orbital     33a         
          Delta Eig. =     0.2034676113 eV 
 
                                              current damping :  0.600
 ITERATION  ENERGY          1e-ENERGY        2e-ENERGY     RMS[dD(SAO)]   TOL
   7  -362.19775948644    -1116.8532766     440.69576298    0.154D-04 0.291D-13
          Norm of current diis error: 0.61215E-02
          max. resid. norm for Fia-block=  6.719D-04 for orbital     18a         
          max. resid. fock norm         =  7.523D-04 for orbital     33a         
          Delta Eig. =     0.0700117874 eV 
 
                                              current damping :  0.450
 ITERATION  ENERGY          1e-ENERGY        2e-ENERGY     RMS[dD(SAO)]   TOL
   8  -362.19776265883    -1116.8529029     440.69538607    0.698D-05 0.277D-13
          Norm of current diis error: 0.29437E-02
          max. resid. norm for Fia-block=  3.593D-04 for orbital     18a         
          max. resid. fock norm         =  4.030D-04 for orbital     33a         
          Delta Eig. =     0.0290774128 eV 
 
                                              current damping :  0.300
 ITERATION  ENERGY          1e-ENERGY        2e-ENERGY     RMS[dD(SAO)]   TOL
   9  -362.19776355115    -1116.8527341     440.69521643    0.387D-05 0.261D-13
          Norm of current diis error: 0.12832E-02
          max. resid. norm for Fia-block=  1.720D-04 for orbital     18a         
          max. resid. fock norm         =  1.949D-04 for orbital     33a         
          Delta Eig. =     0.0104465915 eV 
 
                                              current damping :  0.150
 ITERATION  ENERGY          1e-ENERGY        2e-ENERGY     RMS[dD(SAO)]   TOL
  10  -362.19776375407    -1116.8526709     440.69515300    0.197D-05 0.244D-13
          Norm of current diis error: 0.47873E-03
          max. resid. norm for Fia-block=  6.614D-05 for orbital     29a         
          max. resid. fock norm         =  7.759D-05 for orbital     33a         
 mo-orthogonalization: Cholesky decomposition
          Delta Eig. =     0.0027732045 eV 
 
                                              current damping :  0.050
 ITERATION  ENERGY          1e-ENERGY        2e-ENERGY     RMS[dD(SAO)]   TOL
  11  -362.19776378696    -1116.8526160     440.69509802    0.850D-06 0.228D-13
          Norm of current diis error: 0.15357E-03
          max. resid. norm for Fia-block=  2.091D-05 for orbital     29a         
          max. resid. fock norm         =  2.445D-05 for orbital     33a         
          Delta Eig. =     0.0011697595 eV 
 
                                              current damping :  0.100
 ITERATION  ENERGY          1e-ENERGY        2e-ENERGY     RMS[dD(SAO)]   TOL
  12  -362.19776379029    -1116.8526167     440.69509872    0.284D-06 0.216D-13
          Norm of current diis error: 0.52618E-04
          max. resid. norm for Fia-block=  8.271D-06 for orbital     29a         
          max. resid. fock norm         =  9.611D-06 for orbital     29a         
          Delta Eig. =     0.0005245409 eV 

 DENSITY CONVERGED !

 
                                              current damping :  0.150
 ITERATION  ENERGY          1e-ENERGY        2e-ENERGY     RMS[dD(SAO)]   TOL
  13  -362.19776379057    -1116.8526019     440.69508395    0.788D-07 0.232D-13
          Norm of current diis error: 0.28510E-04
          max. resid. norm for Fia-block=  2.870D-06 for orbital     27a         
          max. resid. fock norm         =  4.241D-06 for orbital    360a         
          Delta Eig. =     0.0002277897 eV 

 ENERGY & DENSITY CONVERGED !

 
                                              current damping :  0.200
 ITERATION  ENERGY          1e-ENERGY        2e-ENERGY     RMS[dD(SAO)]   TOL
  14  -362.19776379064    -1116.8526037     440.69508574    0.339D-07 0.233D-13
          max. resid. norm for Fia-block=  9.583D-07 for orbital     27a         
          max. resid. fock norm         =  9.967D-07 for orbital     27a         

 convergence criteria satisfied after    14 iterations


                  ------------------------------------------ 
                 |  total energy      =   -362.19776379064  |
                  ------------------------------------------ 
                 :  kinetic energy    =    361.75375378928  :
                 :  potential energy  =   -723.95151757992  :
                 :  virial theorem    =      1.99877412274  :
                 :  wavefunction norm =      1.00000000000  :
                  .......................................... 


 orbitals $scfmo  will be written to file mos

    irrep                 25a         26a         27a         28a         29a   
 eigenvalues H         -0.51375    -0.47525    -0.43441    -0.41508    -0.40520
            eV         -13.9799    -12.9322    -11.8209    -11.2951    -11.0261
 occupation              2.0000      2.0000      2.0000      2.0000      2.0000 

    irrep                 30a         31a         32a         33a         34a   
 eigenvalues H          0.12028     0.14919     0.16100     0.17513     0.18377
            eV           3.2730      4.0598      4.3810      4.7657      5.0006
 
 
 
 
 ==============================================================================
                           electrostatic moments
 ==============================================================================

 reference point for electrostatic moments:    0.00000   0.00000   0.00000

 
              nuc           elec       ->  total
 ------------------------------------------------------------------------------
                          charge      
 ------------------------------------------------------------------------------
          58.000000     -58.000000      -0.000000
 
 ------------------------------------------------------------------------------
                       dipole moment  
 ------------------------------------------------------------------------------
   x     235.728448    -234.284304       1.444144
   y      34.325473     -33.205833       1.119639
   z      -6.956252       7.947271       0.991019
 
   | dipole moment | =     2.0788 a.u. =     5.2837 debye 
 
 ------------------------------------------------------------------------------
                     quadrupole moment
 ------------------------------------------------------------------------------
  xx    1933.633193   -1950.519701     -16.886507
  yy     215.925031    -245.280624     -29.355592
  zz      56.557219     -91.373188     -34.815970
  xy     290.150882    -282.577106       7.573776
  xz      42.053796     -40.893291       1.160505
  yz      46.231947     -45.312768       0.919178
 
     1/3  trace=     -27.019356
     anisotropy=      20.785595
 
 ==============================================================================
 


    ------------------------------------------------------------------------
         total  cpu-time : 10 minutes and 29 seconds
         total wall-time :  35.48 seconds
    ------------------------------------------------------------------------

   ****  dscf : all done  ****


    2019-04-02 15:41:31.084 

