
   OpenMP run-time library returned nthreads = 28

 ricc2 (c-16-29) : TURBOMOLE V7.3 ( 22142 ) 4 Jul 2018 at 18:12:42
 Copyright (C) 2018 TURBOMOLE GmbH, Karlsruhe


    2019-04-01 23:35:15.167 



                              R I C C 2 - PROGRAM

                          the quantum chemistry groups
                             at the universities in
                           Karlsruhe, Bochum & Mainz
                                   Germany



   *-----------------------------------------------------------------------*
   |                     program will use 28 thread(s)                     |
   *-----------------------------------------------------------------------*


              +--------------------------------------------------+
              | Atomic coordinate, charge and isotop information |
              +--------------------------------------------------+

                    atomic coordinates            atom    charge  isotop
          1.61677549    0.67752813    1.98374806    c      6.000     0
          2.86071562    1.70581715    3.23665834    h      1.000     0
          2.53770780   -1.27628071    0.47461869    c      6.000     0
          4.52189513   -1.76376591    0.53283295    h      1.000     0
          0.90292364   -2.60158804   -1.11081081    c      6.000     0
          1.61776430   -4.11753849   -2.28056738    h      1.000     0
         -1.65318879   -1.97014559   -1.19138121    c      6.000     0
         -2.92039359   -2.99653899   -2.42341529    h      1.000     0
         -2.57455777   -0.01325437    0.31340436    c      6.000     0
         -4.55720878    0.47898365    0.24713621    h      1.000     0
         -0.94192273    1.30987680    1.90293907    c      6.000     0
         -1.63671240    2.81633424    3.09544125    h      1.000     0
 
       center of nuclear mass  :   -0.01873204   -0.64568067    0.39587865
       center of nuclear charge:   -0.01875033   -0.64571169    0.39626655

              +--------------------------------------------------+
              |               basis set information              |
              +--------------------------------------------------+

              we will work with the 1s 3p 5d 7f 9g ... basis set
              ...i.e. with spherical basis functions...

   type   atoms  prim   cont   basis
   ---------------------------------------------------------------------------
    c        6     50     30   cc-pVTZ   [4s3p2d1f|18s5p2d1f]
    h        6     16     14   cc-pVTZ   [3s2p1d|5s2p1d]
   ---------------------------------------------------------------------------
   total:   12    396    264
   ---------------------------------------------------------------------------

   total number of primitive shells          :   34
   total number of contracted shells         :   96
   total number of cartesian basis functions :  300
   total number of SCF-basis functions       :  264


 symmetry group of the molecule :   c1 

 the group has the following generators :
   c1(z)

    1 symmetry operations found

 there are 1 real representations :   a   


   =========================================================================


     restricted closed shell calculation for the wavefunction models:
               MP2        - Second Order Moeller Plesset PT


     global parameters for ricc2 program:

        hard restart (reuse of interm.) :  disabled
        soft restart (reuse of vectors) :  disabled
        threshold for vector function   :    0.100000E-05
        convergence threshold energy    :    0.100000E-06
        linear dependence threshold     :    0.100000E-13
        global print level              :      1
        maximum number of iterations    :   300
        maximum number DIIS vectors     :    10
        max. dim. of reduced space      :   100
        core memory limit (MB)          : *****


     MP2 energy only: Energy will be calculated directly from T2 amplitudes!

     Scratch Directory : 


   =========================================================================

    der. integral neglect threshold  :  0.10E-07
    integral neglect threshold       :  0.11E-10
    integral storage threshold THIZE :  0.10E-04
    integral storage threshold THIME :         5


                  +------------------------------------------+
                  |     Auxiliary basis set information      |
                  +------------------------------------------+

              we will work with the 1s 3p 5d 7f 9g ... basis set
              ...i.e. with spherical basis functions...

   type   atoms  prim   cont   basis
   ---------------------------------------------------------------------------
    c        6     81     81   cc-pVTZ   [8s6p5d3f1g|8s6p5d3f1g]
    h        6     30     30   cc-pVTZ   [4s3p2d1f|4s3p2d1f]
   ---------------------------------------------------------------------------
   total:   12    666    666
   ---------------------------------------------------------------------------

   total number of primitive shells          :   33
   total number of contracted shells         :  198
   total number of cartesian basis functions :  816
   total number of SCF-basis functions       :  666


 maximum number of shells which are related by symmetry :  1


 The symmetry information takes   1 MB

*---------------------------------------------------------------------*
|               simplified C1 algorithm will be applied               |
*---------------------------------------------------------------------*
  MOs are in ASCII format !


 reading orbital data $scfmo  from file mos
 orbital characterization : scfconv=9



              +--------------------------------------------+
              | list of orbitals that will be kept frozen: |
              +--------------------------------------------+
              |   irrep   index      energy     occ/vir    |
              +--------------------------------------------+
              |   a         1      -11.2342     occupied   |
              |   a         2      -11.2337     occupied   |
              |   a         3      -11.2336     occupied   |
              |   a         4      -11.2325     occupied   |
              |   a         5      -11.2324     occupied   |
              |   a         6      -11.2318     occupied   |
              +--------------------------------------------+



   Molecular Orbital Statistic:
   ============================

   -----------------------------
   orbitals in total:
   -----------------------------
    frozen occupied :      6
    active occupied :     15
    active virtual  :    243
    frozen virtual  :      0
    all together    :    264
   -----------------------------


     time in riccmos       cpu:  2.96 sec    wall:  0.11 sec    ratio: 27.4

     total memory allocated for calculation of (Q|P)**(-1/2) : 6 MiB


     calculation of (P|Q) ...
     time in lp2sym        cpu:  0.93 sec    wall:  0.03 sec    ratio: 28.1


     calculation of the Cholesky decomposition of (P|Q)**(-1) ...
     time in invmetri      cpu:  1.91 sec    wall:  0.07 sec    ratio: 27.6

   threshold for RMS(d[D]) in SCF was     :  0.10E-06
   integral neglect threshold             :  0.11E-10
   derivative integral neglect threshold  :  0.10E-07


   =========================================================================

     Energy of reference wave function is  -230.7793318789000
     Maximum orbital residual is           0.2010765344288E-06


     Number of symmetry-nonredundant auxiliary basis functions:      666

     Block lengths for integral files:
        frozen occupied (BOI):        1 MiB
        active occupied (BJI):        1 MiB
        active virtual  (BAI):        2 MiB
        frozen virtual  (BGI):        0 MiB
               general  (BTI):        2 MiB

   =========================================================================




   **************************************************************************
   *                                                                        *
   *          OPTIMIZATION OF THE GROUND STATE CLUSTER AMPLITUDES           *
   *                                                                        *
   **************************************************************************


   Iter.   MP2 energy       Norm(Omega)   Norm(t1)  Norm(t2)     cpu    wall
   ...........................................................................
    1   -231.7292969134     ------          0.00000   0.33596    0.10    0.00
   ...........................................................................


     time in total         cpu:  6.32 sec    wall:  0.26 sec    ratio: 24.1


     **********************************************************************
     *                                                                    *
     *   RHF  energy                             :   -230.7793318789      *
     *   MP2 correlation energy (doubles)        :     -0.9499650345      *
     *                                                                    *
     *   Final MP2 energy                        :   -231.7292969134      *
     *                                                                    *
     *    E(S)   =     -0.5934855720      E(T)   =     -0.3564794625      *
     *    E(OS)  =     -0.7123120595      E(SS)  =     -0.2376529750      *
     *                                                                    *
     *   SCS-MP2 energy                          :   -231.7133240087      *
     *   (computed with  C(OS) =   1.2000  and  C(SS) =   0.3333)         *
     *                                                                    *
     *   SOS-MP2 energy                          :   -231.7053375563      *
     *   (computed with  C(OS) =   1.3000)                                *
     *                                                                    *
     *   Norm of MP1 T2 amplitudes               :      0.3359567087      *
     *                                                                    *
     **********************************************************************



    ------------------------------------------------------------------------
         total  cpu-time :  29.24 seconds
         total wall-time :   1.17 seconds
    ------------------------------------------------------------------------

   ****  ricc2 : all done  ****


    2019-04-01 23:35:16.294 

