 operating system is UNIX !

 ridft (c-9-412.gp.local) : TURBOMOLE V7.2 ( 21454 ) 4 Oct 2017 at 12:48:15
 Copyright (C) 2017 TURBOMOLE GmbH, Karlsruhe


    2018-05-18 15:36:23.739 



                                  r i d f t

                        DFT program with RI approximation 
                                for coulomb part 




                                                 
                                 References:     
                                                 
          TURBOMOLE:                             
              R. Ahlrichs, M. Baer, M. Haeser, H. Horn, and
              C. Koelmel
              Electronic structure calculations on workstation
              computers: the program system TURBOMOLE
              Chem. Phys. Lett. 162: 165 (1989)
          Density Functional:                              
              O. Treutler and R. Ahlrichs                      
              Efficient Molecular Numerical Integration Schemes
              J. Chem. Phys. 102: 346 (1995)                   
          Parallel Version:                                
              Performance of parallel TURBOMOLE for Density    
              Functional Calculations                          
              M. v. Arnim and R. Ahlrichs                      
              J. Comp. Chem. 19: 1746 (1998)                   
          RI-J Method:                                     
              Auxiliary Basis Sets to approximate Coulomb      
              Potentials                                       
              Chem. Phys. Lett. 240: 283 (1995)                
              K. Eichkorn, O. Treutler, H. Oehm, M. Haeser     
              and R. Ahlrichs                                  
              Chem. Phys. Lett. 242: 652 (1995)                
                                                           
              Auxiliary Basis Sets for Main Row Atoms and their
              Use to approximate Coulomb Potentials            
              K. Eichkorn, F. Weigend, O. Treutler and         
              R. Ahlrichs                                      
              Theo. Chem. Acc. 97: 119 (1997)                   
                                                           
              Accurate Coulomb-fitting basis sets for H to Rn 
              F. Weigend                                        
              Phys. Chem. Chem. Phys. 8: 1057 (2006)            
                                                           
          Multipole accelerated RI-J (MARI-J):             
              Fast evaluation of the Coulomb potential for     
              electron densities using multipole accelerated   
              resolution of identity approximation             
              M. Sierka, A. Hogekamp and R. Ahlrichs           
              J. Chem. Phys. 118: 9136 (2003)                  
          RI-JK Method:                                     
              A fully direct RI-HF algorithm: Implementation,
              optimised auxiliary basis sets, demonstration of
              accuracy and efficiency                         
              F. Weigend                                      
              Phys. Chem. Chem. Phys. 4: 4285 (2002)           
          Two-component HF and DFT with spin-orbit coupling:  
              Self-consistent treatment of spin-orbit         
              interactions with efficient Hartree-Fock and    
              density functional methods                      
              M. K. Armbruster, F. Weigend, C. van Wüllen and 
              W. Klopper                                      
              Phys. Chem. Chem. Phys. 10: 1748 (2008)         
          Relativistic all-electron 2c calculations           
              An efficient implementation of two-component    
              relativistic exact-decoupling methods for large 
              molecules                                       
              D. Peng, N. Middendorf, F. Weigend, M. Reiher   
              J. Chem. Phys. 138, 184105 (2013)               
                                         




              +--------------------------------------------------+
              |      general information about current run       |
              +--------------------------------------------------+

 
 PBE functional
 exchange:    LDA + PBE
 correlation: LDA (PW) + PBE
 A DFT calculation using the RI-J approximation will be carried out.
 Allocatable memory for RI due to $ricore (MB):                   500


              +--------------------------------------------------+
              | Atomic coordinate, charge and isotop information |
              +--------------------------------------------------+

                    atomic coordinates            atom    charge  isotop
          1.34670449    2.11837487    0.11440550    c      6.000     0
          2.56594885    3.75375042    0.24138827    h      1.000     0
          2.37772094   -0.30094248    0.23476733    c      6.000     0
          4.39352686   -0.54254014    0.46627676    h      1.000     0
          0.80669567   -2.40850634    0.08059763    c      6.000     0
          1.60710748   -4.28671652    0.17905146    h      1.000     0
         -1.79444207   -2.09773596   -0.18956522    c      6.000     0
         -3.01308460   -3.73461606   -0.30937364    h      1.000     0
         -2.82613388    0.32323872   -0.30527773    c      6.000     0
         -4.84484734    0.56544602   -0.51722393    h      1.000     0
         -1.25445237    2.43140269   -0.15760587    c      6.000     0
         -2.05394465    4.31046569   -0.25111840    h      1.000     0
 
       center of nuclear mass  :   -0.22400242    0.01097137   -0.03670429
       center of nuclear charge:   -0.22401754    0.01097091   -0.03635880

              +--------------------------------------------------+
              |               basis set information              |
              +--------------------------------------------------+

              we will work with the 1s 3p 5d 7f 9g ... basis set
              ...i.e. with spherical basis functions...

   type   atoms  prim   cont   basis
   ---------------------------------------------------------------------------
    c        6     77     57   def2-QZVP   [7s4p3d2f1g|15s8p3d2f1g]
    h        6     33     30   def2-QZVP   [4s3p2d1f|7s3p2d1f]
   ---------------------------------------------------------------------------
   total:   12    660    522
   ---------------------------------------------------------------------------

   total number of primitive shells          :   42
   total number of contracted shells         :  162
   total number of cartesian basis functions :  642
   total number of SCF-basis functions       :  522


 integral neglect threshold       :  0.52E-13
 integral storage threshold THIZE :  0.10E-04
 integral storage threshold THIME :         5

 RI-J AUXILIARY BASIS SET information:

              we will work with the 1s 3p 5d 7f 9g ... basis set
              ...i.e. with spherical basis functions...

   type   atoms  prim   cont   basis
   ---------------------------------------------------------------------------
    c        6     70     49   def2-QZVP   [6s4p3d1f1g|12s5p4d2f1g]
    h        6     16     11   def2-QZVP   [3s1p1d|5s2p1d]
   ---------------------------------------------------------------------------
   total:   12    516    360
   ---------------------------------------------------------------------------

   total number of primitive shells          :   32
   total number of contracted shells         :  120
   total number of cartesian basis functions :  438
   total number of SCF-basis functions       :  360


 symmetry group of the molecule :   c1 

 the group has the following generators :
   c1(z)

    1 symmetry operations found

 there are 1 real representations :   a   

 maximum number of shells which are related by symmetry :  1


    mo occupation :
   irrep   mo's   occupied
    a      522       21
 
 number of basis functions   :                    522
 number of occupied orbitals :                     21
 
  
           ------------------
           density functional
           ------------------
 PBE functional
 exchange:    LDA + PBE
 correlation: LDA (PW) + PBE

 iterations will be done with small grid
  
 spherical integration : Lebedev's spherical grid
 spherical gridsize    :                     5
    i.e. gridpoints    :                   590
 value for diffuse not defined
 radial integration    : Chebyshev 2nd kind (scaling 3)
 radial gridsize       :                     8
 integration cells     :                    12
 partition function    : becke
 partition sharpness   :                     3
  

 biggest AO integral is expected to be     5.262544080
  
           ------------------------
               RI-J - INFORMATION
           ------------------------
 Contributions to RI integral batches: 
  neglected integral batches:                  1435
  direct contribution:                         2234
  memory contribution:                  9534
 Memory core needed for (P|Q) and Cholesky      1 MByte
 Memory core minimum needed except of (P|Q)     2 MByte
 Total minimum memory core needed (sum)         3 MByte
  
 ****************************************
 Memory allocated for RI-J   434 MByte
 ****************************************
                                            

          ------------------------
          nuclear repulsion energy  :   203.712002479    
          ------------------------


         -----------------
         -S,T+V- integrals
         -----------------

 1e-integrals will be neglected if expon. factor < 0.520555E-14
 
   Difference densities algorithm switched on.
   The maximal number of linear combinations of
   difference densities is                    20 .

 DIIS switched on: error vector is FDS-SDF
 Max. Iterations for DIIS is     :   4
 DIIS matrix (see manual) 
    Scaling factor of diagonals  :  1.200
    threshold for scaling factor :  0.000

 scf convergence criterion : increment of total energy < .1000000D-08
                  and increment of one-electron energy < .1000000D-05

  MOs are in ASCII format !


 automatic virtual orbital shift switched on 
      shift if e(lumo)-e(homo) < 0.10000000    


 reading orbital data $scfmo  from file mos
 orbital characterization : expanded
 mo provided and orthogonalized by Cholesky decomposition

 DSCF restart information will be dumped onto file mos


 Starting SCF iterations

          Overall gridpoints after grid construction =         58195

 ITERATION  ENERGY          1e-ENERGY        2e-ENERGY     NORM[dD(SAO)]  TOL
   1  -231.25961995666    -704.60878003     269.63715759    0.000D+00 0.519D-13
                            Exc = -33.4749823678     Coul =  303.112139959    
                              N = 41.999999838    
                            current damping = 0.700
 
          max. resid. norm for Fia-block=  4.986D-01 for orbital      7a         
          max. resid. fock norm         =  4.684D+01 for orbital    437a         

 ITERATION  ENERGY          1e-ENERGY        2e-ENERGY     NORM[dD(SAO)]  TOL
   2  -231.88029951378    -711.71063230     276.11833030    0.127D+01 0.397D-13
                            Exc = -34.1325510162     Coul =  310.250881320    
                              N = 42.000003326    
                            current damping = 0.650
 
          Norm of current diis error:  2.8775    
          max. resid. norm for Fia-block=  1.154D-01 for orbital      4a         
          max. resid. fock norm         =  1.448D-01 for orbital     61a         

 ITERATION  ENERGY          1e-ENERGY        2e-ENERGY     NORM[dD(SAO)]  TOL
   3  -231.99586753696    -713.01731118     277.30944116    0.498D+00 0.277D-13
                            Exc = -34.3032143908     Coul =  311.612655554    
                              N = 42.000004129    
                            current damping = 0.550
 
          Norm of current diis error:  1.3925    
          max. resid. norm for Fia-block=  5.347D-02 for orbital      7a         
          max. resid. fock norm         =  6.204D-02 for orbital      7a         

 ITERATION  ENERGY          1e-ENERGY        2e-ENERGY     NORM[dD(SAO)]  TOL
   4  -232.02987378191    -714.35273786     278.61086160    0.149D+00 0.227D-13
                            Exc = -34.4299139045     Coul =  313.040775508    
                              N = 42.000005977    
                            current damping = 0.450
 
          Norm of current diis error: 0.50624    
          max. resid. norm for Fia-block=  2.042D-02 for orbital      7a         
          max. resid. fock norm         =  2.300D-02 for orbital      7a         

 ITERATION  ENERGY          1e-ENERGY        2e-ENERGY     NORM[dD(SAO)]  TOL
   5  -232.03526682745    -714.53038502     278.78311571    0.356D-01 0.203D-13
                            Exc = -34.4631013930     Coul =  313.246217105    
                              N = 42.000006422    
                            current damping = 0.300
 
          Norm of current diis error: 0.19159    
          max. resid. norm for Fia-block=  7.344D-03 for orbital      7a         
          max. resid. fock norm         =  8.525D-03 for orbital      7a         
          mo-orthogonalization: Cholesky decomposition

 ITERATION  ENERGY          1e-ENERGY        2e-ENERGY     NORM[dD(SAO)]  TOL
   6  -232.03607098334    -714.86562942     279.11755595    0.133D-01 0.193D-13
                            Exc = -34.4906716488     Coul =  313.608227602    
                              N = 42.000006931    
                            current damping = 0.150
 
          Norm of current diis error: 0.51655E-01
          max. resid. norm for Fia-block=  1.784D-03 for orbital     21a         
          max. resid. fock norm         =  2.932D-03 for orbital     74a         

 ITERATION  ENERGY          1e-ENERGY        2e-ENERGY     NORM[dD(SAO)]  TOL
   7  -232.03611934447    -714.74683545     278.99871363    0.249D-02 0.188D-13
                            Exc = -34.4855115826     Coul =  313.484225210    
                              N = 42.000006824    
                            current damping = 0.200
 
          Norm of current diis error: 0.29459E-01
          max. resid. norm for Fia-block=  6.299D-04 for orbital     12a         
          max. resid. fock norm         =  8.084D-04 for orbital     12a         

 ITERATION  ENERGY          1e-ENERGY        2e-ENERGY     NORM[dD(SAO)]  TOL
   8  -232.03613530659    -714.80562913     279.05749134    0.745D-03 0.186D-13
                            Exc = -34.4892827977     Coul =  313.546774140    
                              N = 42.000006899    
                            current damping = 0.250
 
          Norm of current diis error: 0.21277E-02
          max. resid. norm for Fia-block=  9.988D-05 for orbital     21a         
          max. resid. fock norm         =  2.393D-04 for orbital      5a         

 ITERATION  ENERGY          1e-ENERGY        2e-ENERGY     NORM[dD(SAO)]  TOL
   9  -232.03613514403    -714.80742957     279.05929195    0.552D-03 0.184D-13
                            Exc = -34.4893991307     Coul =  313.548691077    
                              N = 42.000006903    
                            current damping = 0.300
 
          Norm of current diis error: 0.33830E-02
          max. resid. norm for Fia-block=  4.833D-05 for orbital     20a         
          max. resid. fock norm         =  1.207D-04 for orbital    521a         

 ITERATION  ENERGY          1e-ENERGY        2e-ENERGY     NORM[dD(SAO)]  TOL
  10  -232.03613538608    -714.80775051     279.05961265    0.338D-04 0.183D-13
                            Exc = -34.4894252895     Coul =  313.549037936    
                              N = 42.000006904    
                            current damping = 0.150
 
          Norm of current diis error: 0.97111E-03
          max. resid. norm for Fia-block=  2.066D-05 for orbital     21a         
          max. resid. fock norm         =  4.441D-05 for orbital    521a         
          mo-orthogonalization: Cholesky decomposition

 ITERATION  ENERGY          1e-ENERGY        2e-ENERGY     NORM[dD(SAO)]  TOL
  11  -232.03613540716    -714.80760671     279.05946882    0.184D-04 0.181D-13
                            Exc = -34.4894232112     Coul =  313.548892033    
                              N = 42.000006904    
                            current damping = 0.200
 
          Norm of current diis error: 0.14732E-03
          max. resid. norm for Fia-block=  4.473D-06 for orbital     21a         
          max. resid. fock norm         =  1.017D-05 for orbital      6a         

 ITERATION  ENERGY          1e-ENERGY        2e-ENERGY     NORM[dD(SAO)]  TOL
  12  -232.03613540743    -714.80755653     279.05941865    0.625D-05 0.180D-13
                            Exc = -34.4894185555     Coul =  313.548837203    
                              N = 42.000006904    
                            current damping = 0.050
 
          Norm of current diis error: 0.99039E-04
          max. resid. norm for Fia-block=  2.425D-06 for orbital     20a         
          max. resid. fock norm         =  6.287D-06 for orbital      3a         

 ITERATION  ENERGY          1e-ENERGY        2e-ENERGY     NORM[dD(SAO)]  TOL
  13  -232.03613540762    -714.80759467     279.05945678    0.101D-05 0.179D-13
                            Exc = -34.4894208968     Coul =  313.548877676    
                              N = 42.000006904    
                            current damping = 0.100
 
          Norm of current diis error: 0.28042E-04
          max. resid. norm for Fia-block=  7.099D-07 for orbital     20a         
          max. resid. fock norm         =  1.682D-06 for orbital      3a         

 ITERATION  ENERGY          1e-ENERGY        2e-ENERGY     NORM[dD(SAO)]  TOL
  14  -232.03613540765    -714.80758939     279.05945150    0.413D-06 0.179D-13
                            Exc = -34.4894207600     Coul =  313.548872265    
                              N = 42.000006904    
                            current damping = 0.150
 
          Norm of current diis error: 0.47765E-05
          max. resid. norm for Fia-block=  1.684D-07 for orbital     20a         
          max. resid. fock norm         =  4.405D-07 for orbital      4a         

 ITERATION  ENERGY          1e-ENERGY        2e-ENERGY     NORM[dD(SAO)]  TOL
  15  -232.03613540765    -714.80758538     279.05944749    0.291D-06 0.178D-13
                            Exc = -34.4894204787     Coul =  313.548867972    
                              N = 42.000006904    
                            current damping = 0.050
 
          Norm of current diis error: 0.39103E-05
          max. resid. norm for Fia-block=  6.539D-08 for orbital     14a         
          max. resid. fock norm         =  1.708D-07 for orbital      4a         
          mo-orthogonalization: Cholesky decomposition

 ENERGY CONVERGED !

          Overall gridpoints after grid construction =        188454

 ITERATION  ENERGY          1e-ENERGY        2e-ENERGY     NORM[dD(SAO)]  TOL
  16  -232.03612046611    -714.80758751     279.05946456    0.935D-08 0.178D-13
                            Exc = -34.4894056675     Coul =  313.548870230    
                              N = 42.000003447    
                            current damping = 0.100
 
          Norm of current diis error: 0.11923E-05
          max. resid. norm for Fia-block=  3.145D-08 for orbital     21a         
          max. resid. fock norm         =  6.258D-08 for orbital    518a         

 End of SCF iterations

   convergence criteria satisfied after    16 iterations


                  ------------------------------------------ 
                 |  total energy      =   -232.03612046611  |
                  ------------------------------------------ 
                 :  kinetic energy    =    231.03164254035  :
                 :  potential energy  =   -463.06776300646  :
                 :  virial theorem    =      1.99567102775  :
                 :  wavefunction norm =      1.00000000000  :
                  .......................................... 


 <geterg> : there is no data group $energy 


 <skperg> : $end is missing 


 orbitals $scfmo  will be written to file mos

    irrep                 17a         18a         19a         20a         21a   
 eigenvalues H         -0.33338    -0.30206    -0.30184    -0.23267    -0.23257
            eV          -9.0719     -8.2196     -8.2136     -6.3313     -6.3286
 occupation              2.0000      2.0000      2.0000      2.0000      2.0000 

    irrep                 22a         23a         24a         25a         26a   
 eigenvalues H         -0.04391    -0.04390     0.00728     0.03331     0.03334
            eV          -1.1948     -1.1947      0.1981      0.9064      0.9073
 
 
 
 
 ==============================================================================
                           electrostatic moments
 ==============================================================================

 reference point for electrostatic moments:    0.00000   0.00000   0.00000

 
              nuc           elec       ->  total
 ------------------------------------------------------------------------------
                          charge      
 ------------------------------------------------------------------------------
          42.000000     -42.000000       0.000000
 
 ------------------------------------------------------------------------------
                       dipole moment  
 ------------------------------------------------------------------------------
   x      -9.408737       9.408622      -0.000115
   y       0.460778      -0.460761       0.000017
   z      -1.527070       1.531147       0.004077
 
   | dipole moment | =     0.0041 a.u. =     0.0104 debye 
 
 ------------------------------------------------------------------------------
                     quadrupole moment
 ------------------------------------------------------------------------------
  xx     190.631681    -214.643340     -24.011659
  yy     190.382210    -214.344934     -23.962724
  zz       2.106051     -31.515482     -29.409431
  xy      -0.011149       0.013787       0.002638
  xz      19.977135     -19.386554       0.590581
  yz      -0.973758       0.945597      -0.028161
 
     1/3  trace=     -25.794605
     anisotropy=       5.518263
 
 ==============================================================================
 


    ------------------------------------------------------------------------
         total  cpu-time :  1 minutes and 35 seconds
         total wall-time :  5 minutes and 30 seconds
    ------------------------------------------------------------------------

   ****  ridft : all done  ****


    2018-05-18 15:41:53.862 

