STARTING dscf ON 2 PROCESSORS!
RUNNING PROGRAM /beegfs/modfac/apps/TURBOMOLE/7.2.1-official/bin/em64t-unknown-linux-gnu_mpi/dscf_mpi.
PLEASE WAIT UNTIL dscf HAS FINISHED.
Look for the output in slave1.output.
MACHINEFILE is ./hostlist
 this is node-proc. number 1 running on node c-15-34.local
 the total number of node-proc. spawned is   3
  parallel platform: MPP or cluster with fast interconnect

 dscf (c-15-34.local) : TURBOMOLE V7.2 ( 21471 ) 7 Nov 2017 at 16:15:16
 Copyright (C) 2017 TURBOMOLE GmbH, Karlsruhe


    2018-02-14 09:35:54.289 


 SCF run will be profiled !



                             d s c f - program

                   idea & directorship : reinhart ahlrichs
                   program development : marco haeser
                                         michael baer
                           dft version : oliver treutler
           parallelized version : malte v. arnim, gina corongiu, GMD 


                          quantum chemistry group
                          universitaet  karlsruhe
                                  germany




                          References             
                                                 
          TURBOMOLE:                             
              R. Ahlrichs, M. Baer, M. Haeser, H. Horn, and
              C. Koelmel
              Electronic structure calculations on workstation
              computers: the program system TURBOMOLE
              Chem. Phys. Lett. 162: 165 (1989)
          Density Functional:                              
              O. Treutler and R. Ahlrichs                      
              Efficient Molecular Numerical Integration Schemes
              J. Chem. Phys. 102: 346 (1995)                   
          Parallel Version:                                
              Performance of parallel TURBOMOLE for Density    
              Functional Calculations                          
              M. v. Arnim and R. Ahlrichs                      
              J. Comp. Chem. 19: 1746 (1998)                   
                                         




              +--------------------------------------------------+
              | Atomic coordinate, charge and isotop information |
              +--------------------------------------------------+

                    atomic coordinates            atom    charge  isotop
          1.71035248   -0.09469273    0.00000000    c      6.000     0
          2.66705263   -2.27810921    0.00000000    o      8.000     0
         -1.25432395    0.03299317    0.00000000    c      6.000     0
          2.79757682    2.02816025    0.00000000    o      8.000     0
         -1.90628923    1.08352506   -1.66814008    h      1.000     0
         -1.90628923    1.08352506    1.66814008    h      1.000     0
         -2.10807952   -1.85540160    0.00000000    h      1.000     0
 
       center of nuclear mass  :    1.47244236   -0.07495948    0.00000000
       center of nuclear charge:    1.30750157   -0.06639163    0.00000000

              +--------------------------------------------------+
              |               basis set information              |
              +--------------------------------------------------+

              we will work with the 1s 3p 5d 7f 9g ... basis set
              ...i.e. with spherical basis functions...

   type   atoms  prim   cont   basis
   ---------------------------------------------------------------------------
    c        2     50     30   cc-pVTZ   [4s3p2d1f|18s5p2d1f]
    o        2     50     30   cc-pVTZ   [4s3p2d1f|18s5p2d1f]
    h        3     16     14   cc-pVTZ   [3s2p1d|5s2p1d]
   ---------------------------------------------------------------------------
   total:    7    248    162
   ---------------------------------------------------------------------------

   total number of primitive shells          :   60
   total number of contracted shells         :   58
   total number of cartesian basis functions :  185
   total number of SCF-basis functions       :  162


 integral neglect threshold       :  0.18E-12
 integral storage threshold THIZE :  0.10E-04
 integral storage threshold THIME :         5


 DENSITY CONVERGENCE CHECK SWITCHED ON !
 SCF CONVERGENCE IF RMS(delta[D]) <     0.1000000000E-06


 symmetry group of the molecule :   c1 

 the group has the following generators :
   c1(z)

    1 symmetry operations found

 there are 1 real representations :   a   

 maximum number of shells which are related by symmetry :  1


    mo occupation :
   irrep   mo's   occupied
    a      162       16
 
 number of basis functions   :                    162
 number of occupied orbitals :                     16
 

 automatic virtual orbital shift switched on 
      shift if e(lumo)-e(homo) < 0.10000000    


 keyword $2e-ints_shell_statistics missing in file <control>

 ! One task per shell generated
  No pre-computed optimal task distribution found
  ... using automatic task generation

          ------------------------
          nuclear repulsion energy  :   111.104029603    
          ------------------------


         -----------------
         -S,T+V- integrals
         -----------------

 1e-integrals will be neglected if expon. factor < 0.180647E-13
 
   Difference densities algorithm switched on.
   The maximal number of linear combinations of
   difference densities is                    20 .

 DIIS switched on: error vector is FDS-SDF
 Max. Iterations for DIIS is     :   5
 DIIS matrix (see manual) 
    Scaling factor of diagonals  :  1.200
    threshold for scaling factor :  0.000

 scf convergence criterion : increment of total energy < .1000000D-08
                  and increment of one-electron energy < .1000000D-05

  MOs are in ASCII format !


 reading orbital data $scfmo  from file mos
 orbital characterization : scfconv=9

 DSCF restart information will be dumped onto file mos

 
                                              current damping :  0.300
 ITERATION  ENERGY          1e-ENERGY        2e-ENERGY     RMS[dD(SAO)]   TOL
   1  -227.31681125753    -539.66656724     201.24572638    0.000D+00 0.180D-12
          max. resid. norm for Fia-block=  2.020D-04 for orbital     13a         
          max. resid. fock norm         =  2.972D-03 for orbital    156a         
          Delta Eig. =     0.1685572218 eV 
 
                                              current damping :  0.250
 ITERATION  ENERGY          1e-ENERGY        2e-ENERGY     RMS[dD(SAO)]   TOL
   2  -227.31681137799    -539.66698633     201.24614534    0.542D-05 0.114D-12
          Norm of current diis error: 0.45906E-03
          max. resid. norm for Fia-block=  5.946D-05 for orbital     13a         
          max. resid. fock norm         =  6.875D-04 for orbital    156a         
          Delta Eig. =     0.0400742062 eV 
 
                                              current damping :  0.200
 ITERATION  ENERGY          1e-ENERGY        2e-ENERGY     RMS[dD(SAO)]   TOL
   3  -227.31681138939    -539.66687184     201.24603084    0.219D-05 0.887D-13
          Norm of current diis error: 0.14297E-03
          max. resid. norm for Fia-block=  1.753D-05 for orbital     16a         
          max. resid. fock norm         =  1.375D-04 for orbital    156a         
          Delta Eig. =     0.0083690298 eV 
 
                                              current damping :  0.100
 ITERATION  ENERGY          1e-ENERGY        2e-ENERGY     RMS[dD(SAO)]   TOL
   4  -227.31681139041    -539.66686593     201.24602494    0.615D-06 0.803D-13
          Norm of current diis error: 0.35396E-04
          max. resid. norm for Fia-block=  3.466D-06 for orbital     10a         
          max. resid. fock norm         =  2.267D-05 for orbital    156a         
          Delta Eig. =     0.0016198564 eV 
 
                                              current damping :  0.150
 ITERATION  ENERGY          1e-ENERGY        2e-ENERGY     RMS[dD(SAO)]   TOL
   5  -227.31681139049    -539.66688411     201.24604312    0.175D-06 0.755D-13
          Norm of current diis error: 0.11003E-04
          max. resid. norm for Fia-block=  1.366D-06 for orbital     15a         
          max. resid. fock norm         =  2.440D-06 for orbital    161a         
 mo-orthogonalization: Cholesky decomposition
          Delta Eig. =     0.0000994067 eV 

 DENSITY CONVERGED !

 
                                              current damping :  0.200
 ITERATION  ENERGY          1e-ENERGY        2e-ENERGY     RMS[dD(SAO)]   TOL
   6  -227.31681139050    -539.66687198     201.24603098    0.507D-07 0.723D-13
          Norm of current diis error: 0.40605E-05
          max. resid. norm for Fia-block=  4.941D-07 for orbital     15a         
          max. resid. fock norm         =  5.384D-07 for orbital     15a         
          Delta Eig. =     0.0000294111 eV 

 ENERGY & DENSITY CONVERGED !

 
                                              current damping :  0.250
 ITERATION  ENERGY          1e-ENERGY        2e-ENERGY     RMS[dD(SAO)]   TOL
   7  -227.31681139051    -539.66687423     201.24603324    0.200D-07 0.687D-13
          max. resid. norm for Fia-block=  1.556D-07 for orbital     15a         
          max. resid. fock norm         =  1.559D-07 for orbital     15a         

 convergence criteria satisfied after     7 iterations


                  ------------------------------------------ 
                 |  total energy      =   -227.31681139051  |
                  ------------------------------------------ 
                 :  kinetic energy    =    226.98067245018  :
                 :  potential energy  =   -454.29748384069  :
                 :  virial theorem    =      1.99852127549  :
                 :  wavefunction norm =      1.00000000000  :
                  .......................................... 


 orbitals $scfmo  will be written to file mos

    irrep                 12a         13a         14a         15a         16a   
 eigenvalues H         -0.35032    -0.30700    -0.19166    -0.18078    -0.17664
            eV          -9.5329     -8.3540     -5.2152     -4.9194     -4.8067
 occupation              2.0000      2.0000      2.0000      2.0000      2.0000 

    irrep                 17a         18a         19a         20a         21a   
 eigenvalues H          0.30365     0.36140     0.36970     0.45224     0.47070
            eV           8.2627      9.8344     10.0600     12.3063     12.8084
 
 
 
 
 ==============================================================================
                           electrostatic moments
 ==============================================================================

 reference point for electrostatic moments:    0.00000   0.00000   0.00000

 
              nuc           elec       ->  total
 ------------------------------------------------------------------------------
                          charge      
 ------------------------------------------------------------------------------
          31.000000     -32.000000      -1.000000
 
 ------------------------------------------------------------------------------
                       dipole moment  
 ------------------------------------------------------------------------------
   x      40.532549     -43.390107      -2.857558
   y      -2.058140       2.182862       0.124722
   z       0.000000       0.000000       0.000000
 
   | dipole moment | =     2.8603 a.u. =     7.2701 debye 
 
 ------------------------------------------------------------------------------
                     quadrupole moment
 ------------------------------------------------------------------------------
  xx     158.220528    -187.448815     -29.228287
  yy      80.276624    -106.529109     -26.252484
  zz       5.565383     -24.099389     -18.534006
  xy      -4.654967       4.800501       0.145535
  xz       0.000000      -0.000000      -0.000000
  yz       0.000000       0.000000       0.000000
 
     1/3  trace=     -24.671593
     anisotropy=       9.563604
 
 ==============================================================================
 

    dscf profiling
  --------------------------------------------------------------------
             module   cpu total (s)       %  wall total (s)       %

          dscf.total            24.5  100.00            24.9  100.00
        dscf.prepare             0.2    0.70             0.2    0.78
      prepare.oneint             0.0    0.03             0.0    0.03
     prepare.moinput             0.1    0.23             0.1    0.23
     moinput_orthmos             0.0    0.02             0.0    0.03
            dscf.scf            24.3   99.05            24.5   98.32
             scf.pre             0.0    0.06             0.0    0.08
        scf.makedmat             0.0    0.08             0.0    0.14
          scf.shloop            23.1   94.28            23.1   92.98
          shloop_omp            23.1   94.27            23.1   92.97
          scf.symcar             0.0    0.01             0.0    0.01
        scf.makefock             0.0    0.07             0.0    0.19
          scf.newerg             0.0    0.00             0.0    0.00
          scf.newcnv             0.0    0.09             0.0    0.11
           scf.fdiag             0.1    0.32             0.1    0.44
         diag_tritrn             0.0    0.05             0.0    0.04
          diag_rdiag             0.1    0.26             0.1    0.26
          scf.modump             0.8    3.45             0.9    3.46
           ortho_all             0.0    0.01             0.0    0.02
            scf.post             0.2    0.64             0.2    0.69
        dscf.postscf             0.1    0.24             0.2    0.89
 


    ------------------------------------------------------------------------
         total  cpu-time :  24.97 seconds
         total wall-time :  25.78 seconds
    ------------------------------------------------------------------------

   ****  dscf : all done  ****


    2018-02-14 09:36:19.234 

