           Doing BLAS/Lapack in the master proc. with  8 CPUs.
           SMPCPUS    set: Shared-memory Parallelization with   8 CPUs.

           SMP Parallelization Reference:
           C. van Wullen, J. Comput. Chem. 32 (2011) 1195--1201
 operating system is UNIX !

 ridft (c-18-132.gp.local) : TURBOMOLE V7.2 ( 21454 ) 4 Oct 2017 at 12:48:15
 Copyright (C) 2017 TURBOMOLE GmbH, Karlsruhe


    2018-04-24 21:11:10.205 



                                  r i d f t

                        DFT program with RI approximation 
                                for coulomb part 




                                                 
                                 References:     
                                                 
          TURBOMOLE:                             
              R. Ahlrichs, M. Baer, M. Haeser, H. Horn, and
              C. Koelmel
              Electronic structure calculations on workstation
              computers: the program system TURBOMOLE
              Chem. Phys. Lett. 162: 165 (1989)
          Density Functional:                              
              O. Treutler and R. Ahlrichs                      
              Efficient Molecular Numerical Integration Schemes
              J. Chem. Phys. 102: 346 (1995)                   
          Parallel Version:                                
              Performance of parallel TURBOMOLE for Density    
              Functional Calculations                          
              M. v. Arnim and R. Ahlrichs                      
              J. Comp. Chem. 19: 1746 (1998)                   
          RI-J Method:                                     
              Auxiliary Basis Sets to approximate Coulomb      
              Potentials                                       
              Chem. Phys. Lett. 240: 283 (1995)                
              K. Eichkorn, O. Treutler, H. Oehm, M. Haeser     
              and R. Ahlrichs                                  
              Chem. Phys. Lett. 242: 652 (1995)                
                                                           
              Auxiliary Basis Sets for Main Row Atoms and their
              Use to approximate Coulomb Potentials            
              K. Eichkorn, F. Weigend, O. Treutler and         
              R. Ahlrichs                                      
              Theo. Chem. Acc. 97: 119 (1997)                   
                                                           
              Accurate Coulomb-fitting basis sets for H to Rn 
              F. Weigend                                        
              Phys. Chem. Chem. Phys. 8: 1057 (2006)            
                                                           
          Multipole accelerated RI-J (MARI-J):             
              Fast evaluation of the Coulomb potential for     
              electron densities using multipole accelerated   
              resolution of identity approximation             
              M. Sierka, A. Hogekamp and R. Ahlrichs           
              J. Chem. Phys. 118: 9136 (2003)                  
          RI-JK Method:                                     
              A fully direct RI-HF algorithm: Implementation,
              optimised auxiliary basis sets, demonstration of
              accuracy and efficiency                         
              F. Weigend                                      
              Phys. Chem. Chem. Phys. 4: 4285 (2002)           
          Two-component HF and DFT with spin-orbit coupling:  
              Self-consistent treatment of spin-orbit         
              interactions with efficient Hartree-Fock and    
              density functional methods                      
              M. K. Armbruster, F. Weigend, C. van Wüllen and 
              W. Klopper                                      
              Phys. Chem. Chem. Phys. 10: 1748 (2008)         
          Relativistic all-electron 2c calculations           
              An efficient implementation of two-component    
              relativistic exact-decoupling methods for large 
              molecules                                       
              D. Peng, N. Middendorf, F. Weigend, M. Reiher   
              J. Chem. Phys. 138, 184105 (2013)               
                                         




              +--------------------------------------------------+
              |      general information about current run       |
              +--------------------------------------------------+

 

 DENSITY CONVERGENCE CHECK SWITCHED ON !
 SCF CONVERGENCE IF RMS(delta[D]) <     0.1000000000E-06

 PBE functional
 exchange:    LDA + PBE
 correlation: LDA (PW) + PBE
 A DFT calculation using the RI-J approximation will be carried out.
 Allocatable memory for RI due to $ricore (MB):                   500


              +--------------------------------------------------+
              | Atomic coordinate, charge and isotop information |
              +--------------------------------------------------+

                    atomic coordinates            atom    charge  isotop
         -1.48638681    0.08535598   -0.01358547    o      8.000     0
          0.33581713    0.02399177   -0.01291701    h      1.000     0
         -2.35836109   -2.43828252    0.00204775    c      6.000     0
         -4.41114509   -2.37897075    0.00041801    h      1.000     0
         -1.74982167   -3.49555511   -1.66380065    h      1.000     0
         -1.75182872   -3.47419135    1.68200086    h      1.000     0
          4.02300611   -0.09701212   -0.00895907    o      8.000     0
          4.85298164    0.63648923   -1.44491033    h      1.000     0
          4.85048750    0.66379971    1.41417390    h      1.000     0
 
       center of nuclear mass  :    0.28769154   -0.75036222   -0.00721842
       center of nuclear charge:    0.29533138   -0.81240645   -0.00689661

              +--------------------------------------------------+
              |               basis set information              |
              +--------------------------------------------------+

              we will work with the 1s 3p 5d 7f 9g ... basis set
              ...i.e. with spherical basis functions...

   type   atoms  prim   cont   basis
   ---------------------------------------------------------------------------
    o        2     50     30   cc-pVTZ   [4s3p2d1f|18s5p2d1f]
    h        6     16     14   cc-pVTZ   [3s2p1d|5s2p1d]
    c        1     50     30   cc-pVTZ   [4s3p2d1f|18s5p2d1f]
   ---------------------------------------------------------------------------
   total:    9    246    174
   ---------------------------------------------------------------------------

   total number of primitive shells          :   60
   total number of contracted shells         :   66
   total number of cartesian basis functions :  195
   total number of SCF-basis functions       :  174


 integral neglect threshold       :  0.17E-12
 integral storage threshold THIZE :  0.10E-04
 integral storage threshold THIME :         5

 RI-J AUXILIARY BASIS SET information:

              we will work with the 1s 3p 5d 7f 9g ... basis set
              ...i.e. with spherical basis functions...

   type   atoms  prim   cont   basis
   ---------------------------------------------------------------------------
    o        2     70     49   cc-pVTZ   [6s4p3d1f1g|12s5p4d2f1g]
    h        6     16     11   cc-pVTZ   [3s1p1d|5s2p1d]
    c        1     70     49   cc-pVTZ   [6s4p3d1f1g|12s5p4d2f1g]
   ---------------------------------------------------------------------------
   total:    9    306    213
   ---------------------------------------------------------------------------

   total number of primitive shells          :   56
   total number of contracted shells         :   75
   total number of cartesian basis functions :  255
   total number of SCF-basis functions       :  213


 symmetry group of the molecule :   c1 

 the group has the following generators :
   c1(z)

    1 symmetry operations found

 there are 1 real representations :   a   

 maximum number of shells which are related by symmetry :  1


    mo occupation :
   irrep   mo's   occupied
    a      174       14
 
 number of basis functions   :                    174
 number of occupied orbitals :                     14
 
  
           ------------------
           density functional
           ------------------
 PBE functional
 exchange:    LDA + PBE
 correlation: LDA (PW) + PBE

 iterations will be done with small grid
  
 spherical integration : Lebedev's spherical grid
 spherical gridsize    :                     5
    i.e. gridpoints    :                   590
 value for diffuse not defined
 radial integration    : Chebyshev 2nd kind (scaling 3)
 radial gridsize       :                     8
 integration cells     :                     9
 partition function    : becke
 partition sharpness   :                     3
  

 biggest AO integral is expected to be     4.866064444
  
           ------------------------
               RI-J - INFORMATION
           ------------------------
 Contributions to RI integral batches: 
  neglected integral batches:                   190
  direct contribution:                            0
  memory contribution:                  2021
 Memory core needed for (P|Q) and Cholesky      1 MByte
 Memory core minimum needed except of (P|Q)     1 MByte
 Total minimum memory core needed (sum)         1 MByte
  
 ****************************************
 Memory allocated for RI-J    34 MByte
 ****************************************
                                            

          ------------------------
          nuclear repulsion energy  :   78.7453740921    
          ------------------------


         -----------------
         -S,T+V- integrals
         -----------------

 1e-integrals will be neglected if expon. factor < 0.171383E-13
 Difference densities >>NOT<< switched on in parallel ridft!

 DIIS switched on: error vector is FDS-SDF
 Max. Iterations for DIIS is     :   4
 DIIS matrix (see manual) 
    Scaling factor of diagonals  :  1.200
    threshold for scaling factor :  0.000

 scf convergence criterion : increment of total energy < .1000000D-08
                  and increment of one-electron energy < .1000000D-05

  MOs are in ASCII format !


 automatic virtual orbital shift switched on 
      shift if e(lumo)-e(homo) < 0.10000000    


 reading orbital data $scfmo  from file mos
 orbital characterization : expanded
 mo provided and orthogonalized by Cholesky decomposition

 DSCF restart information will be dumped onto file mos


 Starting SCF iterations

          Overall gridpoints after grid construction =         40624

 ITERATION  ENERGY          1e-ENERGY        2e-ENERGY     RMS[dD(SAO)]   TOL
   1  -191.33267627543    -419.33011915     149.25206878    0.000D+00 0.171D-12
                            Exc = -24.7084820376     Coul =  173.960550816    
                              N = 27.999983923    
                            current damping = 0.700
 
          max. resid. norm for Fia-block=  3.085D-01 for orbital      2a         
          max. resid. fock norm         =  4.695D+00 for orbital    174a         

 ITERATION  ENERGY          1e-ENERGY        2e-ENERGY     RMS[dD(SAO)]   TOL
   2  -191.89127597854    -418.24011468     147.60346461    0.365D-02 0.171D-12
                            Exc = -24.4965588363     Coul =  172.100023447    
                              N = 27.999991755    
                            current damping = 0.650
 
          Norm of current diis error:  1.4090    
          max. resid. norm for Fia-block=  1.331D-01 for orbital      1a         
          max. resid. fock norm         =  1.932D-01 for orbital    172a         

 ITERATION  ENERGY          1e-ENERGY        2e-ENERGY     RMS[dD(SAO)]   TOL
   3  -191.98017840146    -418.96822071     148.24266822    0.226D-02 0.171D-12
                            Exc = -24.6269888667     Coul =  172.869657085    
                              N = 27.999992970    
                            current damping = 0.600
 
          Norm of current diis error: 0.65393    
          max. resid. norm for Fia-block=  5.546D-02 for orbital      1a         
          max. resid. fock norm         =  5.758D-02 for orbital      1a         

 ITERATION  ENERGY          1e-ENERGY        2e-ENERGY     RMS[dD(SAO)]   TOL
   4  -192.00441022849    -418.47121802     147.72143370    0.171D-02 0.171D-12
                            Exc = -24.5821707706     Coul =  172.303604472    
                              N = 27.999994011    
                            current damping = 0.650
 
          Norm of current diis error: 0.25132    
          max. resid. norm for Fia-block=  2.056D-02 for orbital      1a         
          max. resid. fock norm         =  3.047D-02 for orbital     86a         

 ITERATION  ENERGY          1e-ENERGY        2e-ENERGY     RMS[dD(SAO)]   TOL
   5  -192.00827857956    -418.79811173     148.04445906    0.718D-03 0.171D-12
                            Exc = -24.6294336816     Coul =  172.673892741    
                              N = 27.999994040    
                            current damping = 0.700
 
          Norm of current diis error: 0.10313    
          max. resid. norm for Fia-block=  8.457D-03 for orbital     13a         
          max. resid. fock norm         =  9.786D-03 for orbital     18a         
          mo-orthogonalization: Cholesky decomposition

 ITERATION  ENERGY          1e-ENERGY        2e-ENERGY     RMS[dD(SAO)]   TOL
   6  -192.00902769565    -418.69256154     147.93815975    0.419D-03 0.171D-12
                            Exc = -24.6210422487     Coul =  172.559202001    
                              N = 27.999994162    
                            current damping = 0.750
 
          Norm of current diis error: 0.42603E-01
          max. resid. norm for Fia-block=  3.484D-03 for orbital      1a         
          max. resid. fock norm         =  4.886D-03 for orbital     86a         

 ITERATION  ENERGY          1e-ENERGY        2e-ENERGY     RMS[dD(SAO)]   TOL
   7  -192.00915178400    -418.70733351     147.95280763    0.150D-03 0.171D-12
                            Exc = -24.6237832584     Coul =  172.576590887    
                              N = 27.999994163    
                            current damping = 0.800
 
          Norm of current diis error: 0.17711E-01
          max. resid. norm for Fia-block=  1.524D-03 for orbital      4a         
          max. resid. fock norm         =  1.944D-03 for orbital     97a         

 ITERATION  ENERGY          1e-ENERGY        2e-ENERGY     RMS[dD(SAO)]   TOL
   8  -192.00917333950    -418.71951755     147.96497012    0.662D-04 0.171D-12
                            Exc = -24.6258830749     Coul =  172.590853195    
                              N = 27.999994189    
                            current damping = 0.650
 
          Norm of current diis error: 0.79976E-02
          max. resid. norm for Fia-block=  6.639D-04 for orbital      1a         
          max. resid. fock norm         =  1.043D-03 for orbital     86a         

 ITERATION  ENERGY          1e-ENERGY        2e-ENERGY     RMS[dD(SAO)]   TOL
   9  -192.00917803538    -418.71664559     147.96209346    0.338D-04 0.171D-12
                            Exc = -24.6258313144     Coul =  172.587924777    
                              N = 27.999994181    
                            current damping = 0.700
 
          Norm of current diis error: 0.32619E-02
          max. resid. norm for Fia-block=  2.606D-04 for orbital      2a         
          max. resid. fock norm         =  2.906D-04 for orbital     13a         

 ITERATION  ENERGY          1e-ENERGY        2e-ENERGY     RMS[dD(SAO)]   TOL
  10  -192.00917879013    -418.71602287     147.96146999    0.141D-04 0.171D-12
                            Exc = -24.6258301588     Coul =  172.587300145    
                              N = 27.999994190    
                            current damping = 0.550
 
          Norm of current diis error: 0.15100E-02
          max. resid. norm for Fia-block=  1.294D-04 for orbital      5a         
          max. resid. fock norm         =  2.249D-04 for orbital     86a         
          mo-orthogonalization: Cholesky decomposition

 ITERATION  ENERGY          1e-ENERGY        2e-ENERGY     RMS[dD(SAO)]   TOL
  11  -192.00917891772    -418.71859900     147.96404599    0.471D-05 0.171D-12
                            Exc = -24.6261955073     Coul =  172.590241502    
                              N = 27.999994188    
                            current damping = 0.600
 
          Norm of current diis error: 0.57588E-03
          max. resid. norm for Fia-block=  4.587D-05 for orbital     13a         
          max. resid. fock norm         =  5.034D-05 for orbital     13a         

 ITERATION  ENERGY          1e-ENERGY        2e-ENERGY     RMS[dD(SAO)]   TOL
  12  -192.00917894028    -418.71757300     147.96301996    0.259D-05 0.171D-12
                            Exc = -24.6260907415     Coul =  172.589110706    
                              N = 27.999994188    
                            current damping = 0.650
 
          Norm of current diis error: 0.19060E-03
          max. resid. norm for Fia-block=  1.501D-05 for orbital      6a         
          max. resid. fock norm         =  1.895D-05 for orbital     18a         

 ITERATION  ENERGY          1e-ENERGY        2e-ENERGY     RMS[dD(SAO)]   TOL
  13  -192.00917894255    -418.71766385     147.96311081    0.724D-06 0.171D-12
                            Exc = -24.6261016192     Coul =  172.589212432    
                              N = 27.999994188    
                            current damping = 0.700
 
          Norm of current diis error: 0.99287E-04
          max. resid. norm for Fia-block=  9.348D-06 for orbital      7a         
          max. resid. fock norm         =  1.239D-05 for orbital     97a         

 ITERATION  ENERGY          1e-ENERGY        2e-ENERGY     RMS[dD(SAO)]   TOL
  14  -192.00917894299    -418.71776013     147.96320710    0.299D-06 0.171D-12
                            Exc = -24.6261164723     Coul =  172.589323571    
                              N = 27.999994188    
                            current damping = 0.550
 
          Norm of current diis error: 0.49025E-04
          max. resid. norm for Fia-block=  3.783D-06 for orbital      8a         
          max. resid. fock norm         =  7.534D-06 for orbital     86a         

 ITERATION  ENERGY          1e-ENERGY        2e-ENERGY     RMS[dD(SAO)]   TOL
  15  -192.00917894307    -418.71773986     147.96318683    0.136D-06 0.171D-12
                            Exc = -24.6261161521     Coul =  172.589302981    
                              N = 27.999994188    
                            current damping = 0.600
 
          Norm of current diis error: 0.26198E-04
          max. resid. norm for Fia-block=  1.656D-06 for orbital     14a         
          max. resid. fock norm         =  1.712D-06 for orbital     14a         
          mo-orthogonalization: Cholesky decomposition

 DENSITY CONVERGED !


 ITERATION  ENERGY          1e-ENERGY        2e-ENERGY     RMS[dD(SAO)]   TOL
  16  -192.00917894310    -418.71771034     147.96315731    0.706D-07 0.171D-12
                            Exc = -24.6261123483     Coul =  172.589269654    
                              N = 27.999994188    
                            current damping = 0.450
 
          Norm of current diis error: 0.98100E-05
          max. resid. norm for Fia-block=  6.636D-07 for orbital      6a         
          max. resid. fock norm         =  8.352D-07 for orbital      8a         

 DENSITY CONVERGED !


 ITERATION  ENERGY          1e-ENERGY        2e-ENERGY     RMS[dD(SAO)]   TOL
  17  -192.00917894310    -418.71773991     147.96318688    0.188D-07 0.171D-12
                            Exc = -24.6261156864     Coul =  172.589302564    
                              N = 27.999994188    
                            current damping = 0.500
 
          Norm of current diis error: 0.51772E-05
          max. resid. norm for Fia-block=  3.037D-07 for orbital     13a         
          max. resid. fock norm         =  4.089D-07 for orbital     97a         

 ENERGY & DENSITY CONVERGED !

          Overall gridpoints after grid construction =        136139

 ITERATION  ENERGY          1e-ENERGY        2e-ENERGY     RMS[dD(SAO)]   TOL
  18  -192.00918813486    -418.71773504     147.96317281    0.132D-07 0.171D-12
                            Exc = -24.6261244820     Coul =  172.589297294    
                              N = 28.000000597    
                            current damping = 0.550
 
          Norm of current diis error: 0.22179E-05
          max. resid. norm for Fia-block=  1.458D-07 for orbital     10a         
          max. resid. fock norm         =  1.597D-07 for orbital     12a         

 End of SCF iterations

   convergence criteria satisfied after    18 iterations


                  ------------------------------------------ 
                 |  total energy      =   -192.00918813486  |
                  ------------------------------------------ 
                 :  kinetic energy    =    190.99553297747  :
                 :  potential energy  =   -383.00472111234  :
                 :  virial theorem    =      1.99472079869  :
                 :  wavefunction norm =      1.00000000000  :
                  .......................................... 


 <geterg> : there is no data group $energy 


 <skperg> : $end is missing 


 orbitals $scfmo  will be written to file mos

    irrep                 10a         11a         12a         13a         14a   
 eigenvalues H         -0.36473    -0.35498    -0.28720    -0.25936    -0.19772
            eV          -9.9250     -9.6596     -7.8152     -7.0576     -5.3803
 occupation              2.0000      2.0000      2.0000      2.0000      2.0000 

    irrep                 15a         16a         17a         18a         19a   
 eigenvalues H         -0.01438     0.05112     0.06293     0.09815     0.10901
            eV          -0.3912      1.3910      1.7125      2.6708      2.9663
 
 
 
 
 ==============================================================================
                           electrostatic moments
 ==============================================================================

 reference point for electrostatic moments:    0.00000   0.00000   0.00000

 
              nuc           elec       ->  total
 ------------------------------------------------------------------------------
                          charge      
 ------------------------------------------------------------------------------
          28.000000     -28.000000       0.000000
 
 ------------------------------------------------------------------------------
                       dipole moment  
 ------------------------------------------------------------------------------
   x       8.269279      -7.013537       1.255742
   y     -22.747381      22.832943       0.085563
   z      -0.193105       0.191721      -0.001384
 
   | dipole moment | =     1.2587 a.u. =     3.1992 debye 
 
 ------------------------------------------------------------------------------
                     quadrupole moment
 ------------------------------------------------------------------------------
  xx     253.303007    -262.558352      -9.255345
  yy      66.599643     -81.420507     -14.820864
  zz       9.687324     -23.281550     -13.594226
  xy      59.378336     -55.770459       3.607877
  xz      -0.349864       0.305865      -0.043999
  yz      -0.042214       0.056818       0.014604
 
     1/3  trace=     -12.556812
     anisotropy=       8.044224
 
 ==============================================================================
 


    ------------------------------------------------------------------------
         total  cpu-time :  46.28 seconds
         total wall-time :   4.43 seconds
    ------------------------------------------------------------------------

   ****  ridft : all done  ****


    2018-04-24 21:11:14.620 

