
   OpenMP run-time library returned nthreads = 20

 ricc2 (c-15-25.gp.local) : TURBOMOLE V7.2 ( 21471 ) 11 Oct 2017 at 17:04:51
 Copyright (C) 2017 TURBOMOLE GmbH, Karlsruhe


    2018-04-11 10:21:17.767 



                              R I C C 2 - PROGRAM

                          the quantum chemistry groups
                             at the universities in
                           Karlsruhe, Bochum & Mainz
                                   Germany



   *-----------------------------------------------------------------------*
   |                     program will use 20 thread(s)                     |
   *-----------------------------------------------------------------------*


              +--------------------------------------------------+
              | Atomic coordinate, charge and isotop information |
              +--------------------------------------------------+

                    atomic coordinates            atom    charge  isotop
         -9.02003411    2.12505454    0.72891931    c      6.000     0
        -10.25393449    2.03151309   -1.90366342    c      6.000     0
        -10.82768021   -0.71606252   -2.56255757    c      6.000     0
        -12.44102824   -1.93843592   -0.51758724    c      6.000     0
        -11.23103559   -1.58008507    2.09550927    c      6.000     0
        -10.80880912    1.04002797    2.51300080    o      8.000     0
         -8.60229459    2.92179582   -3.85242593    o      8.000     0
         -9.05815124    5.37000226   -4.87038879    c      6.000     0
         -8.61319000    5.20075302   -7.73440592    c      6.000     0
         -5.79135633    4.86274006   -8.30775801    c      6.000     0
         -4.22674926    6.77188653   -6.79400362    c      6.000     0
         -4.83102517    6.57112098   -3.97946061    c      6.000     0
         -7.48483344    7.19985593   -3.69999292    o      8.000     0
         -1.61875627    6.17651912   -7.28234476    o      8.000     0
         -0.06141150    8.14942054   -8.15214417    c      6.000     0
          1.70625242    7.08639131  -10.17958247    c      6.000     0
          3.51728717    5.20930441   -8.98816817    c      6.000     0
          4.89561331    6.42207310   -6.76512084    c      6.000     0
          2.96655416    7.40328290   -4.83893259    c      6.000     0
          1.39138217    9.23766138   -6.16337767    o      8.000     0
          6.45721058    4.43330204   -5.76631535    o      8.000     0
          8.98005957    5.01361450   -5.18270113    c      6.000     0
         10.62324537    2.76844694   -6.00798165    c      6.000     0
         10.07103853    0.45839587   -4.38303157    c      6.000     0
         10.28178598    1.12234605   -1.58537222    c      6.000     0
          8.49648478    3.34279373   -1.01051803    c      6.000     0
          9.32892713    5.46110055   -2.56268063    o      8.000     0
          9.61503064   -1.12229430   -0.23208846    o      8.000     0
         11.16924999   -1.83879364    1.84162578    c      6.000     0
         11.47614806   -4.72186110    1.71622312    c      6.000     0
          8.96557499   -6.00523272    2.36688571    c      6.000     0
          7.86796199   -4.87974603    4.79747131    c      6.000     0
          7.57957434   -2.01445869    4.56087732    c      6.000     0
         10.11140771   -1.02780849    4.16555843    o      8.000     0
          5.47563867   -6.13509944    5.16283989    o      8.000     0
          4.98493068   -7.16220790    7.56160879    c      6.000     0
          3.65094114   -9.71316300    7.20211608    c      6.000     0
          1.05280878   -9.32094785    6.03197375    c      6.000     0
         -0.46946709   -7.40913872    7.56008532    c      6.000     0
          1.05497385   -4.94665328    7.78903770    c      6.000     0
          3.42108480   -5.55928043    9.04961857    o      8.000     0
         -2.78669134   -7.04846322    6.21084535    o      8.000     0
         -5.07830546   -7.13725700    7.61339291    c      6.000     0
         -5.92465483   -4.67334008    8.23612993    o      8.000     0
         -6.31340705   -3.09767825    6.02109784    c      6.000     0
         -8.44083721   -4.33124938    4.50202153    c      6.000     0
         -7.72242667   -7.01255583    3.68496572    c      6.000     0
         -7.00250799   -8.59147838    6.00062316    c      6.000     0
         -6.81459870   -0.40699295    6.98693773    c      6.000     0
         -4.92656749    1.35842277    6.18752437    o      8.000     0
         -6.07368241  -11.03501776    5.41296243    o      8.000     0
         -9.80232428   -8.17573269    2.43328511    o      8.000     0
         -8.97749149   -2.98360928    2.19129475    o      8.000     0
         -0.34272791  -11.63913169    5.96850433    o      8.000     0
          5.03054304  -11.37418491    5.53632141    o      8.000     0
         -0.18480883   -2.79943630    9.29904044    c      6.000     0
         -0.43039428   -0.52108281    7.86074848    o      8.000     0
          9.38069215   -8.64652152    2.68432887    o      8.000     0
         12.49161672   -5.44707725   -0.65549987    o      8.000     0
          6.46308797   -0.61651520    6.84534480    c      6.000     0
          4.26988962    0.83240654    6.19937253    o      8.000     0
         11.83064569   -1.53043363   -4.90881696    o      8.000     0
         10.15186650    2.06042856   -8.60479741    o      8.000     0
          8.44978032    4.27972312    1.73511934    c      6.000     0
          5.94967682    4.35964497    2.76258239    o      8.000     0
          5.24755536    4.41159088  -10.90818129    o      8.000     0
          0.20588819    5.95399761  -12.12568101    o      8.000     0
          4.05967090    8.76940603   -2.52086368    c      6.000     0
          3.24144995    7.74346862   -0.14689727    o      8.000     0
         -5.39561648    5.21042474  -10.93980276    o      8.000     0
        -10.17998163    3.30055191   -8.79568973    o      8.000     0
         -3.31491237    8.29423929   -2.21851355    c      6.000     0
         -2.02373891    6.88623065   -0.27555544    o      8.000     0
        -12.10224754   -0.75451771   -4.94774803    o      8.000     0
        -12.70363563   -4.57029891   -1.18099895    o      8.000     0
         -8.31989899    4.75278772    1.74047514    c      6.000     0
         -5.75473465    4.90415747    2.59806630    o      8.000     0
          6.24568235  -12.32421436    6.52647092    h      1.000     0
          0.68403428  -12.84302819    5.03414625    h      1.000     0
         11.72856802   -4.36738902   -1.94954845    h      1.000     0
          7.75185121   -9.37332560    3.16762095    h      1.000     0
         11.29745128    3.00021491   -9.68291969    h      1.000     0
         11.66903660   -1.91653866   -6.69746067    h      1.000     0
          1.34545627    4.90803987  -13.11880308    h      1.000     0
          6.47757819    3.29975936  -10.08807892    h      1.000     0
        -10.20322874    1.87308548   -7.62117931    h      1.000     0
         -3.57164014    5.12168032  -11.24175397    h      1.000     0
        -14.29847084   -5.18794912   -0.52176438    h      1.000     0
        -12.49408108   -2.51428752   -5.30283803    h      1.000     0
         -4.25177981  -10.89688055    5.12203985    h      1.000     0
        -10.26411812   -7.05302057    1.03979289    h      1.000     0
          6.74007175   -7.36803465    8.64372652    h      1.000     0
          3.42115132  -10.59993632    9.06186116    h      1.000     0
          1.28982478   -8.57441378    4.10808433    h      1.000     0
         -0.87100256   -8.17415868    9.44890491    h      1.000     0
          1.47075310   -4.25031001    5.88643715    h      1.000     0
         13.01061444   -0.90410172    1.70718802    h      1.000     0
         12.86715510   -5.28159694    3.14625993    h      1.000     0
          7.60916880   -5.65526435    0.82863822    h      1.000     0
          9.12015918   -5.32303883    6.39397502    h      1.000     0
          6.41578407   -1.58395326    2.90400425    h      1.000     0
          9.56599402    6.76692038   -6.12164425    h      1.000     0
         12.61554173    3.28650310   -5.76746401    h      1.000     0
          8.13063427   -0.18391861   -4.75303907    h      1.000     0
         12.23758222    1.65499047   -1.13118707    h      1.000     0
          6.56844376    2.81938685   -1.55662017    h      1.000     0
         -1.20325000    9.70264120   -8.90455726    h      1.000     0
          2.79873420    8.67129910  -10.96382292    h      1.000     0
          2.43723091    3.58817477   -8.26594567    h      1.000     0
          6.10037748    7.97667900   -7.43551215    h      1.000     0
          1.81198883    5.80333220   -4.21279870    h      1.000     0
        -11.00138564    5.95671399   -4.46823776    h      1.000     0
         -9.21518500    6.99328506   -8.58045801    h      1.000     0
         -5.20679027    2.95363428   -7.71317700    h      1.000     0
         -4.63704818    8.69421989   -7.46265253    h      1.000     0
         -4.54298580    4.61301825   -3.37130296    h      1.000     0
        -12.51930490   -2.16897954    3.60822508    h      1.000     0
        -14.29958197   -1.01994462   -0.50299520    h      1.000     0
         -9.02335485   -1.73820538   -2.69638339    h      1.000     0
        -12.00811081    3.14369303   -1.90931776    h      1.000     0
         -7.31180355    0.95628673    0.69407842    h      1.000     0
         -4.77062966   -8.09639196    9.42113645    h      1.000     0
         -8.71231499   -8.87025583    7.13750191    h      1.000     0
         -6.07872704   -6.88399305    2.41534129    h      1.000     0
        -10.16433224   -4.40663173    5.65912735    h      1.000     0
         -4.58293401   -3.08273301    4.88340959    h      1.000     0
          9.52174948    3.01515218    2.95926186    h      1.000     0
          9.31943248    6.16216277    1.78431856    h      1.000     0
          4.90418870    5.52328605    1.72914679    h      1.000     0
          5.85128885   -1.94739536    8.29669492    h      1.000     0
          7.93829566    0.60632123    7.63803074    h      1.000     0
          4.75288409    2.15693656    4.96034678    h      1.000     0
         -2.09950681   -3.31148624    9.86747073    h      1.000     0
          0.95696321   -2.46988546   10.99878022    h      1.000     0
          1.26010682    0.05861602    7.28558942    h      1.000     0
         -8.60223888    0.31876388    6.25991181    h      1.000     0
         -6.91214122   -0.47793466    9.05722237    h      1.000     0
         -3.24691281    0.77702553    6.79449856    h      1.000     0
          6.11656765    8.62369786   -2.48369928    h      1.000     0
          3.53468816   10.77168221   -2.65583213    h      1.000     0
         -8.49810100    6.17493978    0.26066190    h      1.000     0
         -9.62495482    5.21432793    3.28423536    h      1.000     0
         -5.45242314    3.64704276    3.96548634    h      1.000     0
         -1.84903230    9.29759484   -3.26486147    h      1.000     0
         -4.59892693    9.67543457   -1.36304835    h      1.000     0
         -3.31769054    6.22046703    0.92485595    h      1.000     0
          1.38363638    7.62682882   -0.08922172    h      1.000     0
         -1.97105871   -1.08499760   -0.43552370    c      6.000     0
          1.07560242   -1.70790063   -3.73048879    c      6.000     0
         -0.77035477    0.26308714   -2.70618922    c      6.000     0
          0.23629798   -2.57054356    0.78139947    c      6.000     0
          2.25518787   -2.89231339   -1.33569826    c      6.000     0
          0.72309693    2.38848922   -1.91063399    o      8.000     0
         -0.40103405    3.69546687   -1.23184628    h      1.000     0
          1.02523777   -1.50860739    2.36554082    h      1.000     0
          2.47125999   -0.85638272   -4.99658617    h      1.000     0
         -3.44456862   -2.37729965   -1.11573953    h      1.000     0
         -2.16713384    0.86190571   -4.12209802    h      1.000     0
          2.76901024   -4.87322229   -1.63294111    h      1.000     0
          0.01262086   -3.12613257   -4.80363660    h      1.000     0
          3.98392241   -1.88132413   -0.82940765    h      1.000     0
         -0.40989247   -4.39033529    1.51962142    h      1.000     0
         -2.86245630    0.24242990    0.87518380    h      1.000     0
 
       center of nuclear mass  :   -0.02774570   -0.06215309   -0.09534736
       center of nuclear charge:   -0.02415291   -0.05489743   -0.08422358

              +--------------------------------------------------+
              |               basis set information              |
              +--------------------------------------------------+

              we will work with the 1s 3p 5d 7f 9g ... basis set
              ...i.e. with spherical basis functions...

   type   atoms  prim   cont   basis
   ---------------------------------------------------------------------------
    c       47     77     55   cc-pVQZ   [5s4p3d2f1g|21s6p3d2f1g]
    o       36     77     55   cc-pVQZ   [5s4p3d2f1g|21s6p3d2f1g]
    h       80     32     30   cc-pVQZ   [4s3p2d1f|6s3p2d1f]
   ---------------------------------------------------------------------------
   total:  163   8951   6965
   ---------------------------------------------------------------------------

   total number of primitive shells          :   78
   total number of contracted shells         : 2045
   total number of cartesian basis functions : 8610
   total number of SCF-basis functions       : 6965


 symmetry group of the molecule :   c1 

 the group has the following generators :
   c1(z)

    1 symmetry operations found

 there are 1 real representations :   a   


   =========================================================================


     restricted closed shell calculation for the wavefunction models:
               MP2        - Second Order Moeller Plesset PT


     global parameters for ricc2 program:

        hard restart (reuse of interm.) :  enabled 
        soft restart (reuse of vectors) :  disabled
        threshold for vector function   :    0.100000E-05
        convergence threshold energy    :    0.100000E-06
        linear dependence threshold     :    0.100000E-13
        global print level              :      1
        maximum number of iterations    :   300
        maximum number DIIS vectors     :    10
        max. dim. of reduced space      :   100
        core memory limit (MB)          : *****


     MP2 energy only: Energy will be calculated directly from T2 amplitudes!

     Scratch Directory : 


   =========================================================================

    der. integral neglect threshold  :  0.10E-07
    integral neglect threshold       :  0.39E-12
    integral storage threshold THIZE :  0.10E-04
    integral storage threshold THIME :         5


                  +------------------------------------------+
                  |     Auxiliary basis set information      |
                  +------------------------------------------+

              we will work with the 1s 3p 5d 7f 9g ... basis set
              ...i.e. with spherical basis functions...

   type   atoms  prim   cont   basis
   ---------------------------------------------------------------------------
    c       47    132    132   cc-pVQZ   [8s7p6d5f3g1h|8s7p6d5f3g1h]
    o       36    132    132   cc-pVQZ   [8s7p6d5f3g1h|8s7p6d5f3g1h]
    h       80     55     55   cc-pVQZ   [5s4p3d2f1g|5s4p3d2f1g]
   ---------------------------------------------------------------------------
   total:  163  15356  15356
   ---------------------------------------------------------------------------

   total number of primitive shells          :   75
   total number of contracted shells         : 3690
   total number of cartesian basis functions :20623
   total number of SCF-basis functions       :15356


 maximum number of shells which are related by symmetry :  1



     restored sucessfully symmetry projectors
     skipped calculation of symmetry projectors

 The symmetry information takes   1 MB

*---------------------------------------------------------------------*
|               simplified C1 algorithm will be applied               |
*---------------------------------------------------------------------*
  MOs are in ASCII format !


 reading orbital data $scfmo  from file mos
 orbital characterization : scfconv=7



              +--------------------------------------------+
              | list of orbitals that will be kept frozen: |
              +--------------------------------------------+
              |   irrep   index      energy     occ/vir    |
              +--------------------------------------------+
              |   a         1      -20.6017     occupied   |
              |   a         2      -20.5983     occupied   |
              |   a         3      -20.5981     occupied   |
              |   a         4      -20.5872     occupied   |
              |   a         5      -20.5868     occupied   |
              |   a         6      -20.5860     occupied   |
              |   a         7      -20.5858     occupied   |
              |   a         8      -20.5852     occupied   |
              |   a         9      -20.5846     occupied   |
              |   a        10      -20.5825     occupied   |
              |   a        11      -20.5820     occupied   |
              |   a        12      -20.5820     occupied   |
              |   a        13      -20.5799     occupied   |
              |   a        14      -20.5792     occupied   |
              |   a        15      -20.5788     occupied   |
              |   a        16      -20.5780     occupied   |
              |   a        17      -20.5777     occupied   |
              |   a        18      -20.5774     occupied   |
              |   a        19      -20.5771     occupied   |
              |   a        20      -20.5764     occupied   |
              |   a        21      -20.5728     occupied   |
              |   a        22      -20.5661     occupied   |
              |   a        23      -20.5616     occupied   |
              |   a        24      -20.5555     occupied   |
              |   a        25      -20.5550     occupied   |
              |   a        26      -20.5536     occupied   |
              |   a        27      -20.5532     occupied   |
              |   a        28      -20.5523     occupied   |
              |   a        29      -20.5494     occupied   |
              |   a        30      -20.5477     occupied   |
              |   a        31      -20.5472     occupied   |
              |   a        32      -20.5424     occupied   |
              |   a        33      -20.5423     occupied   |
              |   a        34      -20.5396     occupied   |
              |   a        35      -20.5364     occupied   |
              |   a        36      -20.5350     occupied   |
              |   a        37      -11.3642     occupied   |
              |   a        38      -11.3636     occupied   |
              |   a        39      -11.3630     occupied   |
              |   a        40      -11.3517     occupied   |
              |   a        41      -11.3503     occupied   |
              |   a        42      -11.3499     occupied   |
              |   a        43      -11.3489     occupied   |
              |   a        44      -11.3166     occupied   |
              |   a        45      -11.3147     occupied   |
              |   a        46      -11.3146     occupied   |
              |   a        47      -11.3099     occupied   |
              |   a        48      -11.3096     occupied   |
              |   a        49      -11.3092     occupied   |
              |   a        50      -11.3061     occupied   |
              |   a        51      -11.3051     occupied   |
              |   a        52      -11.3042     occupied   |
              |   a        53      -11.3041     occupied   |
              |   a        54      -11.3021     occupied   |
              |   a        55      -11.3009     occupied   |
              |   a        56      -11.2994     occupied   |
              |   a        57      -11.2973     occupied   |
              |   a        58      -11.2972     occupied   |
              |   a        59      -11.2955     occupied   |
              |   a        60      -11.2945     occupied   |
              |   a        61      -11.2941     occupied   |
              |   a        62      -11.2927     occupied   |
              |   a        63      -11.2925     occupied   |
              |   a        64      -11.2918     occupied   |
              |   a        65      -11.2901     occupied   |
              |   a        66      -11.2845     occupied   |
              |   a        67      -11.2839     occupied   |
              |   a        68      -11.2833     occupied   |
              |   a        69      -11.2832     occupied   |
              |   a        70      -11.2823     occupied   |
              |   a        71      -11.2821     occupied   |
              |   a        72      -11.2820     occupied   |
              |   a        73      -11.2816     occupied   |
              |   a        74      -11.2810     occupied   |
              |   a        75      -11.2805     occupied   |
              |   a        76      -11.2801     occupied   |
              |   a        77      -11.2779     occupied   |
              |   a        78      -11.2772     occupied   |
              |   a        79      -11.2677     occupied   |
              |   a        80      -11.2118     occupied   |
              |   a        81      -11.2115     occupied   |
              |   a        82      -11.2109     occupied   |
              |   a        83      -11.2100     occupied   |
              +--------------------------------------------+



   Molecular Orbital Statistic:
   ============================

   -----------------------------
   orbitals in total:
   -----------------------------
    frozen occupied :     83
    active occupied :    242
    active virtual  :   6640
    frozen virtual  :      0
    all together    :   6965
   -----------------------------


     time in riccmos       cpu:  1 min 45 s  wall:  4 min 38 s  ratio:  0.4

     total memory allocated for calculation of (Q|P)**(-1/2) : 2699 MiB


     calculation of (P|Q) ...
     time in lp2sym        cpu:  2 min 34 s  wall:  0 min  8 s  ratio: 18.8


     calculation of the Cholesky decomposition of (P|Q)**(-1) ...

  ----------------------------------------------------------------------------
  hard_restart flag is disabled because the check sum for the
  (P|Q)**(-1/2) "$chkCCVPQ_ISQR" differs from the reference value:
  reference value:     49391.3983174439    
  computed value :     49391.3982935209    
  relative error :    0.484355138274102E-09
  tolerance      :    0.100000000000000E-11
  the calculation will proceed...
  ----------------------------------------------------------------------------
     time in invmetri      cpu:  1 h 27 min  wall:  0 h  5 min  ratio: 17.3

   threshold for RMS(d[D]) in SCF was     :  0.10E-06
   integral neglect threshold             :  0.39E-12
   derivative integral neglect threshold  :  0.10E-07


   =========================================================================

     Energy of reference wave function is -4523.2001870530003
     Maximum orbital residual is           0.1740812693288E-05


     Number of symmetry-nonredundant auxiliary basis functions:    15356

     Block lengths for integral files:
        frozen occupied (BOI):       10 MiB
        active occupied (BJI):       29 MiB
        active virtual  (BAI):      778 MiB
        frozen virtual  (BGI):        0 MiB
               general  (BTI):      816 MiB

   =========================================================================




   **************************************************************************
   *                                                                        *
   *          OPTIMIZATION OF THE GROUND STATE CLUSTER AMPLITUDES           *
   *                                                                        *
   **************************************************************************


   Iter.   MP2 energy       Norm(Omega)    Norm(t1)  Norm(t2)     cpu    wall
   ...........................................................................
    1  -4540.9214786441     ------          0.00000   1.2895257378.64 3400.13
   ...........................................................................


     time in total         cpu:  39 d 20 h 18 min  wall:   2 d  8 h 40 min  ratio: 16.9


     **********************************************************************
     *                                                                    *
     *   RHF  energy                             :  -4523.2001870530      *
     *   MP2 correlation energy (doubles)        :    -17.7212915911      *
     *                                                                    *
     *   Final MP2 energy                        :  -4540.9214786441      *
     *                                                                    *
     *    E(S)   =    -11.1308783417      E(T)   =     -6.5904132494      *
     *    E(OS)  =    -13.3276827581      E(SS)  =     -4.3936088329      *
     *                                                                    *
     *   SCS-MP2 energy                          :  -4540.6579426404      *
     *   (computed with  C(OS) =   1.2000  and  C(SS) =   0.3333)         *
     *                                                                    *
     *   SOS-MP2 energy                          :  -4540.5261746386      *
     *   (computed with  C(OS) =   1.3000)                                *
     *                                                                    *
     *   Norm of MP1 T2 amplitudes               :      1.2895249742      *
     *                                                                    *
     **********************************************************************



    ------------------------------------------------------------------------
         total  cpu-time :  41 days 20 hours 10 minutes and 17 seconds
         total wall-time :   2 days 15 hours  1 minutes and  2 seconds
    ------------------------------------------------------------------------

   ****  ricc2 : all done  ****


    2018-04-14 01:22:19.214 

