 operating system is UNIX !
 hostname is         c-6-30.local

 ridft (c-6-30.local) : TURBOMOLE V7.0( ) 18 Nov 2015 at 09:57:41
 Copyright (C) 2015 TURBOMOLE GmbH, Karlsruhe


    2016-03-01 08:53:27.281 



                                  r i d f t

                        DFT program with RI approximation 
                                for coulomb part 




                                                 
                                 References:     
                                                 
          TURBOMOLE:                             
              R. Ahlrichs, M. Baer, M. Haeser, H. Horn, and
              C. Koelmel
              Electronic structure calculations on workstation
              computers: the program system TURBOMOLE
              Chem. Phys. Lett. 162: 165 (1989)
          Density Functional:                              
              O. Treutler and R. Ahlrichs                      
              Efficient Molecular Numerical Integration Schemes
              J. Chem. Phys. 102: 346 (1995)                   
          Parallel Version:                                
              Performance of parallel TURBOMOLE for Density    
              Functional Calculations                          
              M. v. Arnim and R. Ahlrichs                      
              J. Comp. Chem. 19: 1746 (1998)                   
          RI-J Method:                                     
              Auxiliary Basis Sets to approximate Coulomb      
              Potentials                                       
              Chem. Phys. Lett. 240: 283 (1995)                
              K. Eichkorn, O. Treutler, H. Oehm, M. Haeser     
              and R. Ahlrichs                                  
              Chem. Phys. Lett. 242: 652 (1995)                
                                                           
              Auxiliary Basis Sets for Main Row Atoms and their
              Use to approximate Coulomb Potentials            
              K. Eichkorn, F. Weigend, O. Treutler and         
              R. Ahlrichs                                      
              Theo. Chem. Acc. 97: 119 (1997)                   
                                                           
              Accurate Coulomb-fitting basis sets for H to Rn 
              F. Weigend                                        
              Phys. Chem. Chem. Phys. 8: 1057 (2006)            
                                                           
          Multipole accelerated RI-J (MARI-J):             
              Fast evaluation of the Coulomb potential for     
              electron densities using multipole accelerated   
              resolution of identity approximation             
              M. Sierka, A. Hogekamp and R. Ahlrichs           
              J. Chem. Phys. 118: 9136 (2003)                  
          RI-JK Method:                                     
              A fully direct RI-HF algorithm: Implementation,
              optimised auxiliary basis sets, demonstration of
              accuracy and efficiency                         
              F. Weigend                                      
              Phys. Chem. Chem. Phys. 4: 4285 (2002)           
          Two-component HF and DFT with spin-orbit coupling:  
              Self-consistent treatment of spin-orbit         
              interactions with efficient Hartree-Fock and    
              density functional methods                      
              M. K. Armbruster, F. Weigend, C. van Wüllen and 
              W. Klopper                                      
              Phys. Chem. Chem. Phys. 10: 1748 (2008)         
          Relativistic all-electron 2c calculations           
              An efficient implementation of two-component    
              relativistic exact-decoupling methods for large 
              molecules                                       
              D. Peng, N. Middendorf, F. Weigend, M. Reiher   
              J. Chem. Phys. 138, 184105 (2013)               
                                         


 


              +--------------------------------------------------+
              |      general information about current run       |
              +--------------------------------------------------+

 

 DENSITY CONVERGENCE CHECK SWITCHED ON !
 SCF CONVERGENCE IF RMS(delta[D]) <     0.1000000000E-06

 PBE functional
 exchange:    LDA + PBE
 correlation: LDA (PW) + PBE
 A DFT calculation using the RI-J approximation will be carried out.

 !!!RI-K makes sense only with a hybrid functional.

    RI-K switched off!!!
 Allocatable memory for RI due to $ricore (MB):        7000


              +--------------------------------------------------+
              | Atomic coordinate, charge and isotop information |
              +--------------------------------------------------+

                    atomic coordinates            atom    charge  isotop
         -1.38965263    4.39032136    1.13156966    c      6.000     0
          1.38965263   -4.39032136    1.13156966    c      6.000     0
         -0.19405862   -1.46264217  -10.20895352    c      6.000     0
          0.19405862    1.46264217  -10.20895352    c      6.000     0
         -1.03142613    7.33857758    0.96781809    c      6.000     0
          1.03142613   -7.33857758    0.96781809    c      6.000     0
          0.99073919   -2.62284104  -12.58205912    c      6.000     0
         -0.99073919    2.62284104  -12.58205912    c      6.000     0
         -3.14236228   -3.15720287   -5.78872346    c      6.000     0
          3.14236228    3.15720287   -5.78872346    c      6.000     0
         -0.14546696   -1.44219703  -14.97393405    c      6.000     0
          0.14546696    1.44219703  -14.97393405    c      6.000     0
          3.57666405    3.31980492    9.49921386    c      6.000     0
         -3.57666405   -3.31980492    9.49921386    c      6.000     0
          8.34360821   -2.69027006    7.54322033    c      6.000     0
         -8.34360821    2.69027006    7.54322033    c      6.000     0
         -3.18026697    3.38605834    5.02071977    c      6.000     0
          3.18026697   -3.38605834    5.02071977    c      6.000     0
         -4.14514923    3.79878190    0.93358873    c      6.000     0
          4.14514923   -3.79878190    0.93358873    c      6.000     0
          0.87816726   -3.55509472    3.81634591    c      6.000     0
         -0.87816726    3.55509472    3.81634591    c      6.000     0
         -1.15708952    3.24937709    9.04412472    c      6.000     0
          1.15708952   -3.24937709    9.04412472    c      6.000     0
          1.12621517   -3.27175920   -3.48897382    c      6.000     0
         -1.12621517    3.27175920   -3.48897382    c      6.000     0
          1.36529992    3.47831231    5.24731967    c      6.000     0
         -1.36529992   -3.47831231    5.24731967    c      6.000     0
         -0.12937216   -3.34389023   -1.06556824    c      6.000     0
          0.12937216    3.34389023   -1.06556824    c      6.000     0
          3.49338307   -3.19533112    7.64504652    c      6.000     0
         -3.49338307    3.19533112    7.64504652    c      6.000     0
         -0.89241693    2.52009890   -7.91670079    n      7.000     0
          0.89241693   -2.52009890   -7.91670079    n      7.000     0
          1.23429125    3.34634556    7.89010885    c      6.000     0
         -1.23429125   -3.34634556    7.89010885    c      6.000     0
          0.31247926    2.92778388   -5.73403158    c      6.000     0
         -0.31247926   -2.92778388   -5.73403158    c      6.000     0
          3.91465839   -3.31188035   -3.58718761    c      6.000     0
         -3.91465839    3.31188035   -3.58718761    c      6.000     0
          5.37163573   -3.45380748   -1.25964027    c      6.000     0
         -5.37163573    3.45380748   -1.25964027    c      6.000     0
         -5.88633949    2.95520116    8.96937169    c      6.000     0
          5.88633949   -2.95520116    8.96937169    c      6.000     0
          5.19364639   -3.57691898    3.28595213    o      8.000     0
         -5.19364639    3.57691898    3.28595213    o      8.000     0
          1.21750349   -3.15220152   11.57112811    o      8.000     0
         -1.21750349    3.15220152   11.57112811    o      8.000     0
         -3.64352559   -3.55545244    4.10544245    o      8.000     0
          3.64352559    3.55545244    4.10544245    o      8.000     0
         -5.95191601    2.92370604   11.33732515    o      8.000     0
          5.95191601   -2.92370604   11.33732515    o      8.000     0
          5.10680119   -3.05154790   -5.63973406    o      8.000     0
         -5.10680119    3.05154790   -5.63973406    o      8.000     0
         -2.38509327   -2.75436220   -0.68348394    o      8.000     0
          2.38509327    2.75436220   -0.68348394    o      8.000     0
         -3.08311181    3.06893811   12.02861702    h      1.000     0
          3.08311181   -3.06893811   12.02861702    h      1.000     0
         -2.85736947    2.56305691   -7.68603571    h      1.000     0
          2.85736947   -2.56305691   -7.68603571    h      1.000     0
          3.36139458    3.28226267    2.24385604    h      1.000     0
         -3.36139458   -3.28226267    2.24385604    h      1.000     0
         -2.23085704   -1.81457985  -10.21860359    h      1.000     0
          2.23085704    1.81457985  -10.21860359    h      1.000     0
          7.38405460   -3.09609536   -1.38071144    h      1.000     0
         -7.38405460    3.09609536   -1.38071144    h      1.000     0
         -3.04187874    2.30423662  -12.53715696    h      1.000     0
          3.04187874   -2.30423662  -12.53715696    h      1.000     0
          0.69391008   -4.67078752  -12.55460820    h      1.000     0
         -0.69391008    4.67078752  -12.55460820    h      1.000     0
         -2.16110384   -1.92893115  -15.08206286    h      1.000     0
          2.16110384    1.92893115  -15.08206286    h      1.000     0
         -3.78639701   -4.39141022   -4.27657066    h      1.000     0
          3.78639701    4.39141022   -4.27657066    h      1.000     0
          0.75642921   -2.25465568  -16.65025115    h      1.000     0
         -0.75642921    2.25465568  -16.65025115    h      1.000     0
         -4.06632176   -1.33067428   -5.50483425    h      1.000     0
          4.06632176    1.33067428   -5.50483425    h      1.000     0
         -5.23509016   -2.90973416    8.34546293    h      1.000     0
          5.23509016    2.90973416    8.34546293    h      1.000     0
         -3.74644820   -3.91912363   -7.61169219    h      1.000     0
          3.74644820    3.91912363   -7.61169219    h      1.000     0
         -3.41246197   -1.91689718   11.00470859    h      1.000     0
          3.41246197    1.91689718   11.00470859    h      1.000     0
          9.85055122   -2.35009441    8.90789191    h      1.000     0
         -9.85055122    2.35009441    8.90789191    h      1.000     0
          2.19149914   -8.24252827    2.41705757    h      1.000     0
         -2.19149914    8.24252827    2.41705757    h      1.000     0
         -8.23891606    1.13557290    6.18386662    h      1.000     0
          8.23891606   -1.13557290    6.18386662    h      1.000     0
         -0.95462482   -7.78998062    1.31327174    h      1.000     0
          0.95462482    7.78998062    1.31327174    h      1.000     0
         -1.59173730    8.02525039   -0.89864627    h      1.000     0
          1.59173730   -8.02525039   -0.89864627    h      1.000     0
          8.74979426   -4.40783439    6.46344253    h      1.000     0
         -8.74979426    4.40783439    6.46344253    h      1.000     0
          3.86326181    5.15816225   10.41369316    h      1.000     0
         -3.86326181   -5.15816225   10.41369316    h      1.000     0
 
       center of nuclear mass  :    0.00000000    0.00000000    0.92794586
       center of nuclear charge:    0.00000000    0.00000000    0.81897567

              +--------------------------------------------------+
              |               basis set information              |
              +--------------------------------------------------+

              we will work with the 1s 3p 5d 7f 9g ... basis set
              ...i.e. with spherical basis functions...

   type   atoms  prim   cont   basis
   ---------------------------------------------------------------------------
    c       42     83     63   def2-QZVPD   [8s4p4d2f1g|16s8p4d2f1g]
    n        2     83     63   def2-QZVPD   [8s4p4d2f1g|16s8p4d2f1g]
    o       12     86     66   def2-QZVPD   [8s5p4d2f1g|16s9p4d2f1g]
    h       42     36     33   def2-QZVPD   [4s4p2d1f|7s4p2d1f]
   ---------------------------------------------------------------------------
   total:   98   6196   4950
   ---------------------------------------------------------------------------

   total number of primitive shells          :  108
   total number of contracted shells         : 1538
   total number of cartesian basis functions : 6056
   total number of SCF-basis functions       : 4950


 integral neglect threshold       :  0.55E-14
 integral storage threshold THIZE :  0.10E-04
 integral storage threshold THIME :         5

 RI-J AUXILIARY BASIS SET information:

              we will work with the 1s 3p 5d 7f 9g ... basis set
              ...i.e. with spherical basis functions...

   type   atoms  prim   cont   basis
   ---------------------------------------------------------------------------
    c       42     70     49   def2-QZVPP   [6s4p3d1f1g|12s5p4d2f1g]
    n        2     70     49   def2-QZVPP   [6s4p3d1f1g|12s5p4d2f1g]
    o       12     70     49   def2-QZVPP   [6s4p3d1f1g|12s5p4d2f1g]
    h       42     16     11   def2-QZVPP   [3s1p1d|5s2p1d]
   ---------------------------------------------------------------------------
   total:   98   4592   3206
   ---------------------------------------------------------------------------

   total number of primitive shells          :   80
   total number of contracted shells         : 1050
   total number of cartesian basis functions : 3920
   total number of SCF-basis functions       : 3206


 symmetry group of the molecule :   c1 

 the group has the following generators :
   c1(z)

    1 symmetry operations found

 there are 1 real representations :   a   

 maximum number of shells which are related by symmetry :  1


    mo occupation :
   irrep   mo's   occupied
    a     4950      202
 
 number of basis functions   :         4950
 number of occupied orbitals :          202
 
  
           ------------------
           density functional
           ------------------
 PBE functional
 exchange:    LDA + PBE
 correlation: LDA (PW) + PBE
 iterations will be done with small grid
  
 spherical integration : Lebedev's spherical grid
 spherical gridsize    :           5
    i.e. gridpoints    :         590
 value for diffuse not defined
 radial integration    : Chebyshev 2nd kind (scaling 3)
 radial gridsize       :           8
 integration cells     :          98
 partition function    : becke
 partition sharpness   :           3
  

 biggest AO integral is expected to be     6.990327543
  
           ------------------------
               RI-J - INFORMATION
           ------------------------
 Contributions to RI integral batches: 
  neglected integral batches:      594196
  direct contribution:             522827
  memory contribution:       66468
 Memory core needed for (P|Q) and Cholesky     79 MByte
 Memory core minimum needed except of (P|Q)    12 MByte
 Total minimum memory core needed (sum)        90 MByte
  
 ****************************************
 Memory allocated for RI-J  6411 MByte
 ****************************************
                                            

          ------------------------
          nuclear repulsion energy  :   8859.31557760    
          ------------------------

 
          -----------------
          -S,T+V- integrals
          -----------------

 1e-integrals will be neglected if expon. factor < 0.551843E-15
 
   Difference densities algorithm switched on.
   The maximal number of linear combinations of
   difference densities is          20 .

 automatic virtual orbital shift switched on 
      shift if e(lumo)-e(homo) < 0.10000000    


 DIIS switched on: error vector is FDS-SDF
 Max. Iterations for DIIS is     :   4
 DIIS matrix (see manual) 
    Scaling factor of diagonals  :  1.200
    threshold for scaling factor :  0.000

 scf convergence criterion : increment of total energy < .1000000D-08
                  and increment of one-electron energy < .1000000D-05


 <geterg> : there is no data group $energy 

  MOs are in ASCII format !


 reading orbital data $scfmo  from file mos . 

 orbital characterization : expanded
 
 mo provided and orthogonalized by Cholesky decomposition

 DSCF restart information will be dumped onto file mos


 Starting SCF iterations

          Overall gridpoints after grid construction =        465018

 ITERATION  ENERGY          1e-ENERGY        2e-ENERGY     RMS[dD(SAO)]   TOL
   1  -2626.0071954214    -21164.096677     9678.7739040    0.000D+00 0.550D-14
                            Exc = -354.302817755     Coul =  10033.0767218    
                              N = 403.99909595    
                            current damping = 0.700
 
          max. resid. norm for Fia-block=  7.930D-01 for orbital     67a         
          max. resid. fock norm         =  5.176D+01 for orbital   4068a         

 ITERATION  ENERGY          1e-ENERGY        2e-ENERGY     RMS[dD(SAO)]   TOL
   2  -2634.4341298193    -21225.495508     9731.7458009    0.507D+01 0.545D-14
                            Exc = -355.500914100     Coul =  10087.2467150    
                              N = 403.99935601    
                            current damping = 0.650
 
          Norm of current diis error:  10.154    
          max. resid. norm for Fia-block=  1.562D-01 for orbital      7a         
          max. resid. fock norm         =  3.207D-01 for orbital   4702a         

 ITERATION  ENERGY          1e-ENERGY        2e-ENERGY     RMS[dD(SAO)]   TOL
   3  -2635.5834738114    -21240.610362     9745.7113109    0.108D+01 0.365D-14
                            Exc = -357.578569133     Coul =  10103.2898801    
                              N = 403.99943550    
                            current damping = 0.550
 
          Norm of current diis error:  5.2521    
          max. resid. norm for Fia-block=  6.309D-02 for orbital      5a         
          max. resid. fock norm         =  6.710D-02 for orbital      5a         

 ITERATION  ENERGY          1e-ENERGY        2e-ENERGY     RMS[dD(SAO)]   TOL
   4  -2636.0074659965    -21248.483990     9753.1609468    0.128D+00 0.278D-14
                            Exc = -356.983809053     Coul =  10110.1447558    
                              N = 403.99938791    
                            current damping = 0.450
 
          Norm of current diis error:  2.3779    
          max. resid. norm for Fia-block=  3.888D-02 for orbital     69a         
          max. resid. fock norm         =  7.253D-02 for orbital   4737a         

 ITERATION  ENERGY          1e-ENERGY        2e-ENERGY     RMS[dD(SAO)]   TOL
   5  -2636.0749366480    -21247.553028     9752.1625138    0.803D-01 0.240D-14
                            Exc = -357.888979698     Coul =  10110.0514935    
                              N = 403.99941786    
                            current damping = 0.500
 
          Norm of current diis error:  1.4254    
          max. resid. norm for Fia-block=  1.685D-02 for orbital    191a         
          max. resid. fock norm         =  2.564D-02 for orbital   4903a         
          mo-orthogonalization: Cholesky decomposition

 ITERATION  ENERGY          1e-ENERGY        2e-ENERGY     RMS[dD(SAO)]   TOL
   6  -2636.1070900273    -21252.945182     9757.5225148    0.367D-01 0.223D-14
                            Exc = -357.829749205     Coul =  10115.3522640    
                              N = 403.99937891    
                            current damping = 0.550
 
          Norm of current diis error: 0.66666    
          max. resid. norm for Fia-block=  9.036D-03 for orbital    193a         
          max. resid. fock norm         =  1.910D-02 for orbital   4683a         

 ITERATION  ENERGY          1e-ENERGY        2e-ENERGY     RMS[dD(SAO)]   TOL
   7  -2636.1130872228    -21250.585244     9755.1565797    0.209D-01 0.218D-14
                            Exc = -357.732279000     Coul =  10112.8888587    
                              N = 403.99939085    
                            current damping = 0.600
 
          Norm of current diis error: 0.38480    
          max. resid. norm for Fia-block=  4.436D-03 for orbital    195a         
          max. resid. fock norm         =  9.707D-03 for orbital   4632a         

 ITERATION  ENERGY          1e-ENERGY        2e-ENERGY     RMS[dD(SAO)]   TOL
   8  -2636.1155510189    -21250.928160     9755.4970310    0.742D-02 0.212D-14
                            Exc = -357.741072791     Coul =  10113.2381037    
                              N = 403.99938099    
                            current damping = 0.650
 
          Norm of current diis error: 0.15293    
          max. resid. norm for Fia-block=  2.111D-03 for orbital    200a         
          max. resid. fock norm         =  5.890D-03 for orbital   4950a         

 ITERATION  ENERGY          1e-ENERGY        2e-ENERGY     RMS[dD(SAO)]   TOL
   9  -2636.1158963730    -21250.983077     9755.5516029    0.274D-02 0.209D-14
                            Exc = -357.783973870     Coul =  10113.3355768    
                              N = 403.99938170    
                            current damping = 0.500
 
          Norm of current diis error: 0.61655E-01
          max. resid. norm for Fia-block=  7.526D-04 for orbital    199a         
          max. resid. fock norm         =  1.323D-03 for orbital   4945a         

 ITERATION  ENERGY          1e-ENERGY        2e-ENERGY     RMS[dD(SAO)]   TOL
  10  -2636.1159513509    -21251.248783     9755.8172542    0.119D-02 0.206D-14
                            Exc = -357.777247703     Coul =  10113.5945019    
                              N = 403.99938030    
                            current damping = 0.350
 
          Norm of current diis error: 0.28886E-01
          max. resid. norm for Fia-block=  2.657D-04 for orbital    195a         
          max. resid. fock norm         =  5.053D-04 for orbital   4916a         
          mo-orthogonalization: Cholesky decomposition

 ITERATION  ENERGY          1e-ENERGY        2e-ENERGY     RMS[dD(SAO)]   TOL
  11  -2636.1159643075    -21251.108771     9755.6772290    0.112D-02 0.202D-14
                            Exc = -357.777197009     Coul =  10113.4544260    
                              N = 403.99938065    
                            current damping = 0.400
 
          Norm of current diis error: 0.10108E-01
          max. resid. norm for Fia-block=  1.924D-04 for orbital    197a         
          max. resid. fock norm         =  3.479D-04 for orbital   4939a         

 ITERATION  ENERGY          1e-ENERGY        2e-ENERGY     RMS[dD(SAO)]   TOL
  12  -2636.1159656296    -21251.125284     9755.6937405    0.266D-03 0.197D-14
                            Exc = -357.775158452     Coul =  10113.4688990    
                              N = 403.99938016    
                            current damping = 0.450
 
          Norm of current diis error: 0.66034E-02
          max. resid. norm for Fia-block=  8.068D-05 for orbital    197a         
          max. resid. fock norm         =  1.301D-04 for orbital   4939a         

 ITERATION  ENERGY          1e-ENERGY        2e-ENERGY     RMS[dD(SAO)]   TOL
  13  -2636.1159664704    -21251.120280     9755.6887364    0.187D-03 0.192D-14
                            Exc = -357.776064412     Coul =  10113.4648008    
                              N = 403.99938017    
                            current damping = 0.500
 
          Norm of current diis error: 0.16232E-02
          max. resid. norm for Fia-block=  1.728D-05 for orbital    199a         
          max. resid. fock norm         =  1.221D-04 for orbital   1232a         

 ITERATION  ENERGY          1e-ENERGY        2e-ENERGY     RMS[dD(SAO)]   TOL
  14  -2636.1159663336    -21251.125175     9755.6936314    0.341D-03 0.180D-14
                            Exc = -357.776271287     Coul =  10113.4699027    
                              N = 403.99938021    
                            current damping = 0.550
 
          Norm of current diis error: 0.87217E-03
          max. resid. norm for Fia-block=  7.587D-06 for orbital    195a         
          max. resid. fock norm         =  2.169D-04 for orbital    978a         

 ITERATION  ENERGY          1e-ENERGY        2e-ENERGY     RMS[dD(SAO)]   TOL
  15  -2636.1159664713    -21251.124488     9755.6929437    0.580D-03 0.158D-14
                            Exc = -357.776255362     Coul =  10113.4691991    
                              N = 403.99938022    
                            current damping = 0.600
 
          Norm of current diis error: 0.39752E-03
          max. resid. norm for Fia-block=  4.513D-06 for orbital    195a         
          max. resid. fock norm         =  4.875D-04 for orbital    978a         
          mo-orthogonalization: Cholesky decomposition

 ITERATION  ENERGY          1e-ENERGY        2e-ENERGY     RMS[dD(SAO)]   TOL
  16  -2636.1159664225    -21251.122581     9755.6910372    0.158D-02 0.126D-14
                            Exc = -357.776266250     Coul =  10113.4673035    
                              N = 403.99938021    
                            current damping = 0.650
 
          Norm of current diis error: 0.26733E-03
          max. resid. norm for Fia-block=  2.059D-06 for orbital    195a         
          max. resid. fock norm         =  6.450D-04 for orbital    978a         

 ITERATION  ENERGY          1e-ENERGY        2e-ENERGY     RMS[dD(SAO)]   TOL
  17  -2636.1159665006    -21251.123035     9755.6914906    0.235D-02 0.104D-14
                            Exc = -357.776260208     Coul =  10113.4677508    
                              N = 403.99938020    
                            current damping = 0.700
 
          Norm of current diis error: 0.11624E-03
          max. resid. norm for Fia-block=  2.922D-06 for orbital    179a         
          max. resid. fock norm         =  1.536D-03 for orbital    979a         

 ITERATION  ENERGY          1e-ENERGY        2e-ENERGY     RMS[dD(SAO)]   TOL
  18  -2636.1159665226    -21251.123275     9755.6917311    0.616D-02 0.831D-15
                            Exc = -357.776236792     Coul =  10113.4679679    
                              N = 403.99938020    
                            current damping = 0.550
 
          Norm of current diis error: 0.93907E-04
          max. resid. norm for Fia-block=  3.251D-06 for orbital    122a         
          max. resid. fock norm         =  1.882D-03 for orbital    979a         

 ITERATION  ENERGY          1e-ENERGY        2e-ENERGY     RMS[dD(SAO)]   TOL
  19  -2636.1159665818    -21251.123289     9755.6917447    0.866D-02 0.719D-15
                            Exc = -357.776242660     Coul =  10113.4679873    
                              N = 403.99938020    
                            current damping = 0.400
 
          Norm of current diis error: 0.23082E-04
          max. resid. norm for Fia-block=  8.075D-06 for orbital    202a         
          max. resid. fock norm         =  4.594D-03 for orbital   1271a         

 ITERATION  ENERGY          1e-ENERGY        2e-ENERGY     RMS[dD(SAO)]   TOL
  20  -2636.1159666253    -21251.123297     9755.6917530    0.245D-01 0.695D-15
                            Exc = -357.776246890     Coul =  10113.4679998    
                              N = 403.99938020    
                            current damping = 0.250
 
          Norm of current diis error: 0.10001E-04
          max. resid. norm for Fia-block=  5.591D-06 for orbital    202a         
          max. resid. fock norm         =  3.018D-03 for orbital   1271a         
          irrep a   : virtual orbitals shifted by    0.00148
          mo-orthogonalization: Cholesky decomposition

 ITERATION  ENERGY          1e-ENERGY        2e-ENERGY     RMS[dD(SAO)]   TOL
  21  -2636.1159664768    -21251.123269     9755.6917247    0.171D-01 0.750D-15
                            Exc = -357.776247880     Coul =  10113.4679725    
                              N = 403.99938020    
                            current damping = 0.300
 
          Norm of current diis error: 0.75314E-05
          max. resid. norm for Fia-block=  8.460D-06 for orbital    119a         
          max. resid. fock norm         =  4.775D-03 for orbital    979a         

 ITERATION  ENERGY          1e-ENERGY        2e-ENERGY     RMS[dD(SAO)]   TOL
  22  -2636.1159665553    -21251.123265     9755.6917207    0.165D-01 0.550D-14
                            Exc = -357.776247163     Coul =  10113.4679679    
                              N = 403.99938019    
                            current damping = 0.150
 
          Norm of current diis error: 0.43467E-05
          max. resid. norm for Fia-block=  5.585D-06 for orbital    202a         
          max. resid. fock norm         =  2.898D-03 for orbital   1271a         
          irrep a   : virtual orbitals shifted by    0.00936

 ITERATION  ENERGY          1e-ENERGY        2e-ENERGY     RMS[dD(SAO)]   TOL
  23  -2636.1159664584    -21251.123274     9755.6917303    0.170D-01 0.352D-14
                            Exc = -357.776246852     Coul =  10113.4679772    
                              N = 403.99938020    
                            current damping = 0.200
 
          Norm of current diis error: 0.14377E-05
          max. resid. norm for Fia-block=  5.316D-06 for orbital    202a         
          max. resid. fock norm         =  2.701D-03 for orbital   1271a         
          irrep a   : virtual orbitals shifted by    0.00542

 ITERATION  ENERGY          1e-ENERGY        2e-ENERGY     RMS[dD(SAO)]   TOL
  24  -2636.1159663954    -21251.123276     9755.6917317    0.143D-01 0.241D-14
                            Exc = -357.776246805     Coul =  10113.4679785    
                              N = 403.99938020    
                            current damping = 0.250
 
          Norm of current diis error: 0.14103E-05
          max. resid. norm for Fia-block=  4.552D-06 for orbital    202a         
          max. resid. fock norm         =  2.241D-03 for orbital   1271a         
          irrep a   : virtual orbitals shifted by    0.00148

 ITERATION  ENERGY          1e-ENERGY        2e-ENERGY     RMS[dD(SAO)]   TOL
  25  -2636.1159665455    -21251.123274     9755.6917301    0.113D-01 0.190D-14
                            Exc = -357.776246932     Coul =  10113.4679770    
                              N = 403.99938020    
                            current damping = 0.300
 
          Norm of current diis error: 0.15157E-05
          max. resid. norm for Fia-block=  7.209D-07 for orbital    202a         
          max. resid. fock norm         =  3.419D-04 for orbital   1229a         
          mo-orthogonalization: Cholesky decomposition

 ITERATION  ENERGY          1e-ENERGY        2e-ENERGY     RMS[dD(SAO)]   TOL
  26  -2636.1159665421    -21251.123277     9755.6917328    0.176D-02 0.179D-14
                            Exc = -357.776246902     Coul =  10113.4679797    
                              N = 403.99938020    
                            current damping = 0.350
 
          Norm of current diis error: 0.43810E-06
          max. resid. norm for Fia-block=  3.322D-07 for orbital    202a         
          max. resid. fock norm         =  1.467D-04 for orbital   1071a         

 ITERATION  ENERGY          1e-ENERGY        2e-ENERGY     RMS[dD(SAO)]   TOL
  27  -2636.1159664942    -21251.123276     9755.6917318    0.772D-03 0.168D-14
                            Exc = -357.776246886     Coul =  10113.4679787    
                              N = 403.99938020    
                            current damping = 0.400
 
          Norm of current diis error: 0.17693E-06
          max. resid. norm for Fia-block=  5.546D-07 for orbital    202a         
          max. resid. fock norm         =  3.034D-04 for orbital    978a         

 ITERATION  ENERGY          1e-ENERGY        2e-ENERGY     RMS[dD(SAO)]   TOL
  28  -2636.1159666347    -21251.123276     9755.6917316    0.162D-02 0.150D-14
                            Exc = -357.776246840     Coul =  10113.4679784    
                              N = 403.99938020    
                            current damping = 0.250
 
          Norm of current diis error: 0.12375E-06
          max. resid. norm for Fia-block=  7.177D-07 for orbital    202a         
          max. resid. fock norm         =  4.816D-04 for orbital    978a         
          irrep a   : virtual orbitals shifted by    0.00148

 ITERATION  ENERGY          1e-ENERGY        2e-ENERGY     RMS[dD(SAO)]   TOL
  29  -2636.1159665214    -21251.123276     9755.6917317    0.248D-02 0.135D-14
                            Exc = -357.776246883     Coul =  10113.4679786    
                              N = 403.99938020    
                            current damping = 0.300
 
          Norm of current diis error: 0.83665E-07
          max. resid. norm for Fia-block=  7.277D-07 for orbital    202a         
          max. resid. fock norm         =  4.685D-04 for orbital    978a         

 ITERATION  ENERGY          1e-ENERGY        2e-ENERGY     RMS[dD(SAO)]   TOL
  30  -2636.1159665042    -21251.123276     9755.6917318    0.188D-02 0.126D-14
                            Exc = -357.776246880     Coul =  10113.4679786    
                              N = 403.99938020    
                            current damping = 0.350
 
          Norm of current diis error: 0.63032E-07
          max. resid. norm for Fia-block=  4.388D-07 for orbital    119a         
          max. resid. fock norm         =  2.016D-04 for orbital    978a         
          mo-orthogonalization: Cholesky decomposition

 ITERATION  ENERGY          1e-ENERGY        2e-ENERGY     RMS[dD(SAO)]   TOL
  31  -2636.1159665693    -21251.123276     9755.6917316    0.709D-03 0.125D-14
                            Exc = -357.776246877     Coul =  10113.4679785    
                              N = 403.99938020    
                            current damping = 0.400
 
          Norm of current diis error: 0.50910E-07
          max. resid. norm for Fia-block=  3.066D-07 for orbital    141a         
          max. resid. fock norm         =  1.263D-04 for orbital    960a         

 ITERATION  ENERGY          1e-ENERGY        2e-ENERGY     RMS[dD(SAO)]   TOL
  32  -2636.1159666164    -21251.123276     9755.6917316    0.854D-03 0.126D-14
                            Exc = -357.776246879     Coul =  10113.4679785    
                              N = 403.99938020    
                            current damping = 0.450
 
          Norm of current diis error: 0.48169E-07
          max. resid. norm for Fia-block=  1.030D-06 for orbital    200a         
          max. resid. fock norm         =  4.584D-04 for orbital    997a         

 ITERATION  ENERGY          1e-ENERGY        2e-ENERGY     RMS[dD(SAO)]   TOL
  33  -2636.1159665824    -21251.123276     9755.6917316    0.309D-02 0.118D-14
                            Exc = -357.776246877     Coul =  10113.4679785    
                              N = 403.99938020    
                            current damping = 0.500
 
          Norm of current diis error: 0.67102E-07
          max. resid. norm for Fia-block=  7.535D-07 for orbital    136a         
          max. resid. fock norm         =  3.480D-04 for orbital    997a         

 ITERATION  ENERGY          1e-ENERGY        2e-ENERGY     RMS[dD(SAO)]   TOL
  34  -2636.1159666377    -21251.123276     9755.6917315    0.206D-02 0.108D-14
                            Exc = -357.776246882     Coul =  10113.4679784    
                              N = 403.99938020    
                            current damping = 0.350
 
          Norm of current diis error: 0.81438E-07
          max. resid. norm for Fia-block=  3.173D-07 for orbital    136a         
          max. resid. fock norm         =  1.459D-04 for orbital    997a         

 ITERATION  ENERGY          1e-ENERGY        2e-ENERGY     RMS[dD(SAO)]   TOL
  35  -2636.1159665195    -21251.123276     9755.6917316    0.944D-03 0.103D-14
                            Exc = -357.776246884     Coul =  10113.4679785    
                              N = 403.99938020    
                            current damping = 0.400
 
          Norm of current diis error: 0.90100E-07
          max. resid. norm for Fia-block=  2.554D-07 for orbital    200a         
          max. resid. fock norm         =  1.271D-04 for orbital    997a         
          mo-orthogonalization: Cholesky decomposition

 ITERATION  ENERGY          1e-ENERGY        2e-ENERGY     RMS[dD(SAO)]   TOL
  36  -2636.1159666099    -21251.123276     9755.6917316    0.804D-03 0.100D-14
                            Exc = -357.776246886     Coul =  10113.4679785    
                              N = 403.99938020    
                            current damping = 0.450
 
          Norm of current diis error: 0.99121E-07
          max. resid. norm for Fia-block=  2.795D-06 for orbital    202a         
          max. resid. fock norm         =  1.266D-03 for orbital    997a         

 ITERATION  ENERGY          1e-ENERGY        2e-ENERGY     RMS[dD(SAO)]   TOL
  37  -2636.1159665040    -21251.123276     9755.6917317    0.636D-02 0.807D-15
                            Exc = -357.776246899     Coul =  10113.4679786    
                              N = 403.99938020    
                            current damping = 0.500
 
          Norm of current diis error: 0.20324E-06
          max. resid. norm for Fia-block=  1.342D-06 for orbital    202a         
          max. resid. fock norm         =  6.298D-04 for orbital    997a         

 ITERATION  ENERGY          1e-ENERGY        2e-ENERGY     RMS[dD(SAO)]   TOL
  38  -2636.1159665583    -21251.123276     9755.6917318    0.320D-02 0.758D-15
                            Exc = -357.776246903     Coul =  10113.4679787    
                              N = 403.99938020    
                            current damping = 0.550
 
          Norm of current diis error: 0.27614E-06
          max. resid. norm for Fia-block=  1.163D-06 for orbital    202a         
          max. resid. fock norm         =  5.057D-04 for orbital   1271a         

 ITERATION  ENERGY          1e-ENERGY        2e-ENERGY     RMS[dD(SAO)]   TOL
  39  -2636.1159664663    -21251.123276     9755.6917318    0.363D-02 0.719D-15
                            Exc = -357.776246905     Coul =  10113.4679787    
                              N = 403.99938020    
                            current damping = 0.600
 
          Norm of current diis error: 0.38384E-06
          max. resid. norm for Fia-block=  6.915D-07 for orbital    119a         
          max. resid. fock norm         =  1.888D-04 for orbital   1443a         

 ITERATION  ENERGY          1e-ENERGY        2e-ENERGY     RMS[dD(SAO)]   TOL
  40  -2636.1159665120    -21251.123276     9755.6917318    0.678D-03 0.736D-15
                            Exc = -357.776246902     Coul =  10113.4679787    
                              N = 403.99938020    
                            current damping = 0.650
 
          Norm of current diis error: 0.28948E-06
          max. resid. norm for Fia-block=  9.202D-06 for orbital    202a         
          max. resid. fock norm         =  3.820D-03 for orbital    997a         
          mo-orthogonalization: Cholesky decomposition

 ITERATION  ENERGY          1e-ENERGY        2e-ENERGY     RMS[dD(SAO)]   TOL
  41  -2636.1159664797    -21251.123276     9755.6917315    0.123D-01 0.695D-15
                            Exc = -357.776246906     Coul =  10113.4679784    
                              N = 403.99938020    
                            current damping = 0.700
 
          Norm of current diis error: 0.30584E-06
          max. resid. norm for Fia-block=  9.989D-06 for orbital    202a         
          max. resid. fock norm         =  3.928D-03 for orbital   1271a         

 ITERATION  ENERGY          1e-ENERGY        2e-ENERGY     RMS[dD(SAO)]   TOL
  42  -2636.1159663769    -21251.123275     9755.6917312    0.162D-01 0.694D-15
                            Exc = -357.776246915     Coul =  10113.4679781    
                              N = 403.99938020    
                            current damping = 0.750
 
          Norm of current diis error: 0.64686E-06
          max. resid. norm for Fia-block=  5.135D-06 for orbital    202a         
          max. resid. fock norm         =  2.045D-03 for orbital   1142a         

 ITERATION  ENERGY          1e-ENERGY        2e-ENERGY     RMS[dD(SAO)]   TOL
  43  -2636.1159666378    -21251.123275     9755.6917312    0.601D-02 0.550D-14
                            Exc = -357.776246908     Coul =  10113.4679781    
                              N = 403.99938020    
                            current damping = 0.800
 
          Norm of current diis error: 0.45130E-06
          max. resid. norm for Fia-block=  2.512D-06 for orbital    202a         
          max. resid. fock norm         =  1.090D-03 for orbital   1271a         

 ITERATION  ENERGY          1e-ENERGY        2e-ENERGY     RMS[dD(SAO)]   TOL
  44  -2636.1159665176    -21251.123275     9755.6917313    0.264D-02 0.349D-14
                            Exc = -357.776246918     Coul =  10113.4679783    
                              N = 403.99938020    
                            current damping = 0.850
 
          Norm of current diis error: 0.35395E-06
          max. resid. norm for Fia-block=  3.835D-06 for orbital    119a         
          max. resid. fock norm         =  1.023D-03 for orbital   1088a         

 ITERATION  ENERGY          1e-ENERGY        2e-ENERGY     RMS[dD(SAO)]   TOL
  45  -2636.1159664783    -21251.123276     9755.6917316    0.271D-02 0.321D-14
                            Exc = -357.776246922     Coul =  10113.4679785    
                              N = 403.99938020    
                            current damping = 0.900
 
          Norm of current diis error: 0.29144E-06
          max. resid. norm for Fia-block=  1.737D-05 for orbital    202a         
          max. resid. fock norm         =  7.146D-03 for orbital   1271a         
          mo-orthogonalization: Cholesky decomposition

 ITERATION  ENERGY          1e-ENERGY        2e-ENERGY     RMS[dD(SAO)]   TOL
  46  -2636.1159665280    -21251.123276     9755.6917317    0.252D-01 0.114D-14
                            Exc = -357.776246903     Coul =  10113.4679786    
                              N = 403.99938020    
                            current damping = 0.750
 
          Norm of current diis error: 0.25435E-06
          max. resid. norm for Fia-block=  7.436D-06 for orbital    202a         
          max. resid. fock norm         =  2.993D-03 for orbital    940a         

 ITERATION  ENERGY          1e-ENERGY        2e-ENERGY     RMS[dD(SAO)]   TOL
  47  -2636.1159664984    -21251.123276     9755.6917319    0.929D-02 0.103D-14
                            Exc = -357.776246875     Coul =  10113.4679788    
                              N = 403.99938020    
                            current damping = 0.800
 
          Norm of current diis error: 0.31260E-06
          max. resid. norm for Fia-block=  3.208D-06 for orbital    202a         
          max. resid. fock norm         =  1.344D-03 for orbital    940a         

 ITERATION  ENERGY          1e-ENERGY        2e-ENERGY     RMS[dD(SAO)]   TOL
  48  -2636.1159665429    -21251.123276     9755.6917319    0.349D-02 0.995D-15
                            Exc = -357.776246864     Coul =  10113.4679788    
                              N = 403.99938020    
                            current damping = 0.650
 
          Norm of current diis error: 0.34771E-06
          max. resid. norm for Fia-block=  1.487D-06 for orbital    202a         
          max. resid. fock norm         =  6.314D-04 for orbital    940a         

 ITERATION  ENERGY          1e-ENERGY        2e-ENERGY     RMS[dD(SAO)]   TOL
  49  -2636.1159665455    -21251.123276     9755.6917318    0.173D-02 0.981D-15
                            Exc = -357.776246853     Coul =  10113.4679787    
                              N = 403.99938020    
                            current damping = 0.700
 
          Norm of current diis error: 0.34956E-06
          max. resid. norm for Fia-block=  2.567D-06 for orbital    119a         
          max. resid. fock norm         =  1.095D-03 for orbital    965a         

 ITERATION  ENERGY          1e-ENERGY        2e-ENERGY     RMS[dD(SAO)]   TOL
  50  -2636.1159664621    -21251.123276     9755.6917318    0.201D-02 0.987D-15
                            Exc = -357.776246841     Coul =  10113.4679787    
                              N = 403.99938020    
                            current damping = 0.750
 
          Norm of current diis error: 0.38316E-06
          max. resid. norm for Fia-block=  2.687D-06 for orbital    119a         
          max. resid. fock norm         =  1.133D-03 for orbital    979a         
          mo-orthogonalization: Cholesky decomposition

 ITERATION  ENERGY          1e-ENERGY        2e-ENERGY     RMS[dD(SAO)]   TOL
  51  -2636.1159664634    -21251.123276     9755.6917316    0.235D-02 0.991D-15
                            Exc = -357.776246830     Coul =  10113.4679784    
                              N = 403.99938020    
                            current damping = 0.600
 
          Norm of current diis error: 0.28186E-06
          max. resid. norm for Fia-block=  1.024D-06 for orbital    119a         
          max. resid. fock norm         =  3.656D-04 for orbital    853a         

 ITERATION  ENERGY          1e-ENERGY        2e-ENERGY     RMS[dD(SAO)]   TOL
  52  -2636.1159664246    -21251.123276     9755.6917320    0.878D-03 0.976D-15
                            Exc = -357.776246824     Coul =  10113.4679788    
                              N = 403.99938020    
                            current damping = 0.650
 
          Norm of current diis error: 0.16030E-06
          max. resid. norm for Fia-block=  1.647D-06 for orbital    119a         
          max. resid. fock norm         =  5.043D-04 for orbital    942a         

 ITERATION  ENERGY          1e-ENERGY        2e-ENERGY     RMS[dD(SAO)]   TOL
  53  -2636.1159664018    -21251.123275     9755.6917314    0.947D-03 0.959D-15
                            Exc = -357.776246847     Coul =  10113.4679782    
                              N = 403.99938020    
                            current damping = 0.700
 
          Norm of current diis error: 0.13616E-06
          max. resid. norm for Fia-block=  1.006D-06 for orbital    119a         
          max. resid. fock norm         =  4.561D-04 for orbital   1271a         

 ITERATION  ENERGY          1e-ENERGY        2e-ENERGY     RMS[dD(SAO)]   TOL
  54  -2636.1159663899    -21251.123276     9755.6917317    0.165D-02 0.955D-15
                            Exc = -357.776246845     Coul =  10113.4679785    
                              N = 403.99938020    
                            current damping = 0.750
 
          Norm of current diis error: 0.44504E-07
          max. resid. norm for Fia-block=  7.335D-07 for orbital    119a         
          max. resid. fock norm         =  2.839D-04 for orbital   1271a         

 ITERATION  ENERGY          1e-ENERGY        2e-ENERGY     RMS[dD(SAO)]   TOL
  55  -2636.1159664905    -21251.123276     9755.6917317    0.815D-03 0.956D-15
                            Exc = -357.776246849     Coul =  10113.4679786    
                              N = 403.99938020    
                            current damping = 0.600
 
          Norm of current diis error: 0.39756E-07
          max. resid. norm for Fia-block=  5.529D-07 for orbital    202a         
          max. resid. fock norm         =  2.470D-04 for orbital    944a         
          mo-orthogonalization: Cholesky decomposition

 ITERATION  ENERGY          1e-ENERGY        2e-ENERGY     RMS[dD(SAO)]   TOL
  56  -2636.1159664944    -21251.123276     9755.6917317    0.970D-03 0.962D-15
                            Exc = -357.776246849     Coul =  10113.4679786    
                              N = 403.99938020    
                            current damping = 0.650
 
          Norm of current diis error: 0.39038E-07
          max. resid. norm for Fia-block=  6.858D-07 for orbital    119a         
          max. resid. fock norm         =  2.225D-04 for orbital    944a         

 ITERATION  ENERGY          1e-ENERGY        2e-ENERGY     RMS[dD(SAO)]   TOL
  57  -2636.1159666330    -21251.123276     9755.6917317    0.722D-03 0.964D-15
                            Exc = -357.776246846     Coul =  10113.4679786    
                              N = 403.99938020    
                            current damping = 0.700
 
          Norm of current diis error: 0.45444E-07
          max. resid. norm for Fia-block=  5.137D-07 for orbital    119a         
          max. resid. fock norm         =  1.464D-04 for orbital    546a         

 ITERATION  ENERGY          1e-ENERGY        2e-ENERGY     RMS[dD(SAO)]   TOL
  58  -2636.1159665513    -21251.123276     9755.6917317    0.295D-03 0.965D-15
                            Exc = -357.776246845     Coul =  10113.4679786    
                              N = 403.99938020    
                            current damping = 0.750
 
          Norm of current diis error: 0.43930E-07
          max. resid. norm for Fia-block=  6.364D-07 for orbital    119a         
          max. resid. fock norm         =  1.701D-04 for orbital    773a         

 ITERATION  ENERGY          1e-ENERGY        2e-ENERGY     RMS[dD(SAO)]   TOL
  59  -2636.1159665201    -21251.123276     9755.6917317    0.514D-03 0.963D-15
                            Exc = -357.776246843     Coul =  10113.4679786    
                              N = 403.99938020    
                            current damping = 0.800
 
          Norm of current diis error: 0.52303E-07
          max. resid. norm for Fia-block=  8.066D-07 for orbital    119a         
          max. resid. fock norm         =  2.202D-04 for orbital    773a         

 ITERATION  ENERGY          1e-ENERGY        2e-ENERGY     RMS[dD(SAO)]   TOL
  60  -2636.1159665646    -21251.123276     9755.6917317    0.424D-03 0.958D-15
                            Exc = -357.776246840     Coul =  10113.4679785    
                              N = 403.99938020    
                            current damping = 0.850
 
          Norm of current diis error: 0.59484E-07
          max. resid. norm for Fia-block=  8.997D-07 for orbital    119a         
          max. resid. fock norm         =  2.440D-04 for orbital    773a         
          mo-orthogonalization: Cholesky decomposition

 ITERATION  ENERGY          1e-ENERGY        2e-ENERGY     RMS[dD(SAO)]   TOL
  61  -2636.1159664854    -21251.123276     9755.6917317    0.386D-03 0.951D-15
                            Exc = -357.776246837     Coul =  10113.4679785    
                              N = 403.99938020    
                            current damping = 0.900
 
          Norm of current diis error: 0.71662E-07
          max. resid. norm for Fia-block=  7.714D-07 for orbital    119a         
          max. resid. fock norm         =  2.175D-04 for orbital   1090a         

 ITERATION  ENERGY          1e-ENERGY        2e-ENERGY     RMS[dD(SAO)]   TOL
  62  -2636.1159666493    -21251.123276     9755.6917317    0.288D-03 0.943D-15
                            Exc = -357.776246833     Coul =  10113.4679785    
                              N = 403.99938020    
                            current damping = 0.950
 
          Norm of current diis error: 0.84637E-07
          max. resid. norm for Fia-block=  9.419D-07 for orbital    186a         
          max. resid. fock norm         =  3.280D-04 for orbital    853a         

 ITERATION  ENERGY          1e-ENERGY        2e-ENERGY     RMS[dD(SAO)]   TOL
  63  -2636.1159665391    -21251.123276     9755.6917319    0.586D-03 0.832D-15
                            Exc = -357.776246830     Coul =  10113.4679787    
                              N = 403.99938020    
                            current damping = 1.000
 
          Norm of current diis error: 0.22209E-06
          max. resid. norm for Fia-block=  1.113D-06 for orbital    151a         
          max. resid. fock norm         =  4.507D-04 for orbital    985a         

 ITERATION  ENERGY          1e-ENERGY        2e-ENERGY     RMS[dD(SAO)]   TOL
  64  -2636.1159666084    -21251.123276     9755.6917319    0.118D-02 0.550D-14
                            Exc = -357.776246824     Coul =  10113.4679787    
                              N = 403.99938020    
                            current damping = 0.850
 
          Norm of current diis error: 0.12741E-06
          max. resid. norm for Fia-block=  1.191D-06 for orbital    202a         
          max. resid. fock norm         =  5.514D-04 for orbital   1071a         

 ITERATION  ENERGY          1e-ENERGY        2e-ENERGY     RMS[dD(SAO)]   TOL
  65  -2636.1159665353    -21251.123276     9755.6917320    0.244D-02 0.349D-14
                            Exc = -357.776246822     Coul =  10113.4679788    
                              N = 403.99938020    
                            current damping = 0.900
 
          Norm of current diis error: 0.11536E-06
          max. resid. norm for Fia-block=  9.341D-07 for orbital    119a         
          max. resid. fock norm         =  4.194D-04 for orbital   1071a         
          mo-orthogonalization: Cholesky decomposition

 ITERATION  ENERGY          1e-ENERGY        2e-ENERGY     RMS[dD(SAO)]   TOL
  66  -2636.1159665488    -21251.123276     9755.6917319    0.192D-02 0.247D-14
                            Exc = -357.776246822     Coul =  10113.4679787    
                              N = 403.99938020    
                            current damping = 0.950
 
          Norm of current diis error: 0.10357E-06
          max. resid. norm for Fia-block=  5.851D-06 for orbital    119a         
          max. resid. fock norm         =  2.289D-03 for orbital    979a         

 ITERATION  ENERGY          1e-ENERGY        2e-ENERGY     RMS[dD(SAO)]   TOL
  67  -2636.1159664841    -21251.123276     9755.6917317    0.500D-02 0.168D-14
                            Exc = -357.776246843     Coul =  10113.4679786    
                              N = 403.99938020    
                            current damping = 1.000
 
          Norm of current diis error: 0.14253E-06
          max. resid. norm for Fia-block=  3.161D-06 for orbital    119a         
          max. resid. fock norm         =  1.398D-03 for orbital    979a         

 ITERATION  ENERGY          1e-ENERGY        2e-ENERGY     RMS[dD(SAO)]   TOL
  68  -2636.1159664584    -21251.123276     9755.6917317    0.262D-02 0.143D-14
                            Exc = -357.776246855     Coul =  10113.4679785    
                              N = 403.99938020    
                            current damping = 1.050
 
          Norm of current diis error: 0.18259E-06
          max. resid. norm for Fia-block=  1.274D-06 for orbital    119a         
          max. resid. fock norm         =  5.207D-04 for orbital    979a         

 ITERATION  ENERGY          1e-ENERGY        2e-ENERGY     RMS[dD(SAO)]   TOL
  69  -2636.1159664843    -21251.123276     9755.6917316    0.135D-02 0.133D-14
                            Exc = -357.776246859     Coul =  10113.4679785    
                              N = 403.99938020    
                            current damping = 0.900
 
          Norm of current diis error: 0.19157E-06
          max. resid. norm for Fia-block=  6.286D-07 for orbital    119a         
          max. resid. fock norm         =  2.319D-04 for orbital   1005a         

 ITERATION  ENERGY          1e-ENERGY        2e-ENERGY     RMS[dD(SAO)]   TOL
  70  -2636.1159665751    -21251.123276     9755.6917316    0.623D-03 0.128D-14
                            Exc = -357.776246861     Coul =  10113.4679784    
                              N = 403.99938020    
                            current damping = 0.950
 
          Norm of current diis error: 0.19017E-06
          max. resid. norm for Fia-block=  9.954D-07 for orbital    187a         
          max. resid. fock norm         =  3.929D-04 for orbital   1229a         
          mo-orthogonalization: Cholesky decomposition

 ITERATION  ENERGY          1e-ENERGY        2e-ENERGY     RMS[dD(SAO)]   TOL
  71  -2636.1159666020    -21251.123276     9755.6917318    0.119D-02 0.122D-14
                            Exc = -357.776246858     Coul =  10113.4679786    
                              N = 403.99938020    
                            current damping = 1.000
 
          Norm of current diis error: 0.15089E-06
          max. resid. norm for Fia-block=  3.351D-06 for orbital    119a         
          max. resid. fock norm         =  1.241D-03 for orbital    965a         

 ITERATION  ENERGY          1e-ENERGY        2e-ENERGY     RMS[dD(SAO)]   TOL
  72  -2636.1159664077    -21251.123276     9755.6917316    0.164D-02 0.121D-14
                            Exc = -357.776246853     Coul =  10113.4679784    
                              N = 403.99938020    
                            current damping = 1.050
 
          Norm of current diis error: 0.91880E-07
          max. resid. norm for Fia-block=  1.893D-06 for orbital    119a         
          max. resid. fock norm         =  7.456D-04 for orbital   1232a         

 ITERATION  ENERGY          1e-ENERGY        2e-ENERGY     RMS[dD(SAO)]   TOL
  73  -2636.1159665249    -21251.123276     9755.6917318    0.219D-02 0.119D-14
                            Exc = -357.776246843     Coul =  10113.4679786    
                              N = 403.99938020    
                            current damping = 1.100
 
          Norm of current diis error: 0.65060E-07
          max. resid. norm for Fia-block=  8.856D-07 for orbital    202a         
          max. resid. fock norm         =  5.187D-04 for orbital    969a         

 ITERATION  ENERGY          1e-ENERGY        2e-ENERGY     RMS[dD(SAO)]   TOL
  74  -2636.1159665458    -21251.123276     9755.6917317    0.177D-02 0.119D-14
                            Exc = -357.776246843     Coul =  10113.4679785    
                              N = 403.99938020    
                            current damping = 1.150
 
          Norm of current diis error: 0.51067E-07
          max. resid. norm for Fia-block=  9.554D-07 for orbital    202a         
          max. resid. fock norm         =  4.420D-04 for orbital   1123a         

 ITERATION  ENERGY          1e-ENERGY        2e-ENERGY     RMS[dD(SAO)]   TOL
  75  -2636.1159664425    -21251.123276     9755.6917318    0.114D-02 0.121D-14
                            Exc = -357.776246846     Coul =  10113.4679786    
                              N = 403.99938020    
                            current damping = 1.200
 
          Norm of current diis error: 0.44245E-07
          max. resid. norm for Fia-block=  1.085D-06 for orbital    119a         
          max. resid. fock norm         =  4.838D-04 for orbital   1123a         
          mo-orthogonalization: Cholesky decomposition

 ITERATION  ENERGY          1e-ENERGY        2e-ENERGY     RMS[dD(SAO)]   TOL
  76  -2636.1159664682    -21251.123276     9755.6917318    0.898D-03 0.122D-14
                            Exc = -357.776246848     Coul =  10113.4679786    
                              N = 403.99938020    
                            current damping = 1.250
 
          Norm of current diis error: 0.52390E-07
          max. resid. norm for Fia-block=  1.009D-06 for orbital    119a         
          max. resid. fock norm         =  4.338D-04 for orbital   1123a         

 ITERATION  ENERGY          1e-ENERGY        2e-ENERGY     RMS[dD(SAO)]   TOL
  77  -2636.1159665424    -21251.123276     9755.6917317    0.686D-03 0.123D-14
                            Exc = -357.776246851     Coul =  10113.4679785    
                              N = 403.99938020    
                            current damping = 1.300
 
          Norm of current diis error: 0.60471E-07
          max. resid. norm for Fia-block=  6.728D-07 for orbital    119a         
          max. resid. fock norm         =  3.014D-04 for orbital   1123a         

 ITERATION  ENERGY          1e-ENERGY        2e-ENERGY     RMS[dD(SAO)]   TOL
  78  -2636.1159666106    -21251.123276     9755.6917317    0.462D-03 0.122D-14
                            Exc = -357.776246853     Coul =  10113.4679786    
                              N = 403.99938020    
                            current damping = 1.350
 
          Norm of current diis error: 0.67516E-07
          max. resid. norm for Fia-block=  7.419D-07 for orbital    119a         
          max. resid. fock norm         =  3.096D-04 for orbital   1123a         

 ITERATION  ENERGY          1e-ENERGY        2e-ENERGY     RMS[dD(SAO)]   TOL
  79  -2636.1159665894    -21251.123276     9755.6917317    0.454D-03 0.122D-14
                            Exc = -357.776246855     Coul =  10113.4679785    
                              N = 403.99938020    
                            current damping = 1.400
 
          Norm of current diis error: 0.72554E-07
          max. resid. norm for Fia-block=  8.558D-07 for orbital    202a         
          max. resid. fock norm         =  3.547D-04 for orbital    901a         

 ITERATION  ENERGY          1e-ENERGY        2e-ENERGY     RMS[dD(SAO)]   TOL
  80  -2636.1159665200    -21251.123276     9755.6917316    0.652D-03 0.121D-14
                            Exc = -357.776246858     Coul =  10113.4679785    
                              N = 403.99938020    
                            current damping = 1.450
 
          Norm of current diis error: 0.79884E-07
          max. resid. norm for Fia-block=  8.353D-07 for orbital    202a         
          max. resid. fock norm         =  3.403D-04 for orbital    901a         
          mo-orthogonalization: Cholesky decomposition

 ITERATION  ENERGY          1e-ENERGY        2e-ENERGY     RMS[dD(SAO)]   TOL
  81  -2636.1159665946    -21251.123276     9755.6917317    0.700D-03 0.117D-14
                            Exc = -357.776246859     Coul =  10113.4679786    
                              N = 403.99938020    
                            current damping = 1.500
 
          Norm of current diis error: 0.83685E-07
          max. resid. norm for Fia-block=  6.704D-07 for orbital    186a         
          max. resid. fock norm         =  2.378D-04 for orbital   1227a         

 ITERATION  ENERGY          1e-ENERGY        2e-ENERGY     RMS[dD(SAO)]   TOL
  82  -2636.1159666124    -21251.123276     9755.6917317    0.454D-03 0.112D-14
                            Exc = -357.776246859     Coul =  10113.4679786    
                              N = 403.99938020    
                            current damping = 1.350
 
          Norm of current diis error: 0.89581E-07
          max. resid. norm for Fia-block=  1.656D-06 for orbital    119a         
          max. resid. fock norm         =  5.053D-04 for orbital   1005a         

 ITERATION  ENERGY          1e-ENERGY        2e-ENERGY     RMS[dD(SAO)]   TOL
  83  -2636.1159666345    -21251.123276     9755.6917317    0.112D-02 0.976D-15
                            Exc = -357.776246857     Coul =  10113.4679786    
                              N = 403.99938020    
                            current damping = 1.200
 
          Norm of current diis error: 0.11344E-06
          max. resid. norm for Fia-block=  2.337D-06 for orbital    119a         
          max. resid. fock norm         =  6.460D-04 for orbital   1005a         

 ITERATION  ENERGY          1e-ENERGY        2e-ENERGY     RMS[dD(SAO)]   TOL
  84  -2636.1159666434    -21251.123276     9755.6917318    0.187D-02 0.840D-15
                            Exc = -357.776246852     Coul =  10113.4679786    
                              N = 403.99938020    
                            current damping = 1.050
 
          Norm of current diis error: 0.15553E-06
          max. resid. norm for Fia-block=  2.151D-06 for orbital    119a         
          max. resid. fock norm         =  7.411D-04 for orbital    979a         

 ITERATION  ENERGY          1e-ENERGY        2e-ENERGY     RMS[dD(SAO)]   TOL
  85  -2636.1159666309    -21251.123276     9755.6917319    0.296D-02 0.550D-14
                            Exc = -357.776246849     Coul =  10113.4679788    
                              N = 403.99938020    
                            current damping = 1.100
 
          Norm of current diis error: 0.10219E-06
          max. resid. norm for Fia-block=  1.183D-06 for orbital    124a         
          max. resid. fock norm         =  5.538D-04 for orbital    978a         
          mo-orthogonalization: Cholesky decomposition

 ITERATION  ENERGY          1e-ENERGY        2e-ENERGY     RMS[dD(SAO)]   TOL
  86  -2636.1159665487    -21251.123276     9755.6917318    0.175D-02 0.349D-14
                            Exc = -357.776246852     Coul =  10113.4679786    
                              N = 403.99938020    
                            current damping = 1.150
 
          Norm of current diis error: 0.80693E-07
          max. resid. norm for Fia-block=  1.052D-06 for orbital    136a         
          max. resid. fock norm         =  4.800D-04 for orbital    978a         

 ITERATION  ENERGY          1e-ENERGY        2e-ENERGY     RMS[dD(SAO)]   TOL
  87  -2636.1159665350    -21251.123276     9755.6917318    0.991D-03 0.262D-14
                            Exc = -357.776246854     Coul =  10113.4679787    
                              N = 403.99938020    
                            current damping = 1.200
 
          Norm of current diis error: 0.72277E-07
          max. resid. norm for Fia-block=  1.644D-06 for orbital    202a         
          max. resid. fock norm         =  6.474D-04 for orbital   1138a         

 ITERATION  ENERGY          1e-ENERGY        2e-ENERGY     RMS[dD(SAO)]   TOL
  88  -2636.1159666217    -21251.123276     9755.6917317    0.139D-02 0.192D-14
                            Exc = -357.776246858     Coul =  10113.4679786    
                              N = 403.99938020    
                            current damping = 1.250
 
          Norm of current diis error: 0.78635E-07
          max. resid. norm for Fia-block=  3.677D-06 for orbital    119a         
          max. resid. fock norm         =  1.462D-03 for orbital    979a         

 ITERATION  ENERGY          1e-ENERGY        2e-ENERGY     RMS[dD(SAO)]   TOL
  89  -2636.1159664199    -21251.123276     9755.6917317    0.526D-02 0.167D-14
                            Exc = -357.776246868     Coul =  10113.4679786    
                              N = 403.99938020    
                            current damping = 1.300
 
          Norm of current diis error: 0.88052E-07
          max. resid. norm for Fia-block=  2.081D-06 for orbital    124a         
          max. resid. fock norm         =  8.651D-04 for orbital    979a         

 ITERATION  ENERGY          1e-ENERGY        2e-ENERGY     RMS[dD(SAO)]   TOL
  90  -2636.1159664482    -21251.123276     9755.6917316    0.307D-02 0.140D-14
                            Exc = -357.776246873     Coul =  10113.4679785    
                              N = 403.99938020    
                            current damping = 1.150
 
          Norm of current diis error: 0.10360E-06
          max. resid. norm for Fia-block=  1.360D-06 for orbital    153a         
          max. resid. fock norm         =  5.733D-04 for orbital    978a         
          mo-orthogonalization: Cholesky decomposition

 ITERATION  ENERGY          1e-ENERGY        2e-ENERGY     RMS[dD(SAO)]   TOL
  91  -2636.1159665345    -21251.123276     9755.6917316    0.212D-02 0.127D-14
                            Exc = -357.776246877     Coul =  10113.4679785    
                              N = 403.99938020    
                            current damping = 1.200
 
          Norm of current diis error: 0.11653E-06
          max. resid. norm for Fia-block=  1.050D-06 for orbital    119a         
          max. resid. fock norm         =  4.203D-04 for orbital    978a         

 ITERATION  ENERGY          1e-ENERGY        2e-ENERGY     RMS[dD(SAO)]   TOL
  92  -2636.1159665049    -21251.123276     9755.6917316    0.131D-02 0.122D-14
                            Exc = -357.776246880     Coul =  10113.4679785    
                              N = 403.99938020    
                            current damping = 1.250
 
          Norm of current diis error: 0.12587E-06
          max. resid. norm for Fia-block=  9.673D-07 for orbital    153a         
          max. resid. fock norm         =  3.521D-04 for orbital    978a         

 ITERATION  ENERGY          1e-ENERGY        2e-ENERGY     RMS[dD(SAO)]   TOL
  93  -2636.1159664883    -21251.123276     9755.6917316    0.116D-02 0.117D-14
                            Exc = -357.776246883     Coul =  10113.4679785    
                              N = 403.99938020    
                            current damping = 1.300
 
          Norm of current diis error: 0.12080E-06
          max. resid. norm for Fia-block=  1.558D-06 for orbital    153a         
          max. resid. fock norm         =  6.412D-04 for orbital   1199a         

 ITERATION  ENERGY          1e-ENERGY        2e-ENERGY     RMS[dD(SAO)]   TOL
  94  -2636.1159665392    -21251.123276     9755.6917316    0.162D-02 0.111D-14
                            Exc = -357.776246884     Coul =  10113.4679785    
                              N = 403.99938020    
                            current damping = 1.350
 
          Norm of current diis error: 0.10832E-06
          max. resid. norm for Fia-block=  2.170D-06 for orbital    202a         
          max. resid. fock norm         =  1.040D-03 for orbital   1229a         

 ITERATION  ENERGY          1e-ENERGY        2e-ENERGY     RMS[dD(SAO)]   TOL
  95  -2636.1159665119    -21251.123276     9755.6917315    0.238D-02 0.105D-14
                            Exc = -357.776246884     Coul =  10113.4679784    
                              N = 403.99938020    
                            current damping = 1.400
 
          Norm of current diis error: 0.93862E-07
          max. resid. norm for Fia-block=  1.290D-06 for orbital    202a         
          max. resid. fock norm         =  6.082D-04 for orbital   1229a         
          mo-orthogonalization: Cholesky decomposition

 ITERATION  ENERGY          1e-ENERGY        2e-ENERGY     RMS[dD(SAO)]   TOL
  96  -2636.1159664466    -21251.123276     9755.6917315    0.132D-02 0.100D-14
                            Exc = -357.776246885     Coul =  10113.4679784    
                              N = 403.99938020    
                            current damping = 1.450
 
          Norm of current diis error: 0.91796E-07
          max. resid. norm for Fia-block=  9.825D-07 for orbital    153a         
          max. resid. fock norm         =  4.399D-04 for orbital   1123a         

 ITERATION  ENERGY          1e-ENERGY        2e-ENERGY     RMS[dD(SAO)]   TOL
  97  -2636.1159665288    -21251.123276     9755.6917315    0.102D-02 0.975D-15
                            Exc = -357.776246887     Coul =  10113.4679784    
                              N = 403.99938020    
                            current damping = 1.500
 
          Norm of current diis error: 0.90939E-07
          max. resid. norm for Fia-block=  1.075D-06 for orbital    119a         
          max. resid. fock norm         =  4.074D-04 for orbital   1229a         

 ITERATION  ENERGY          1e-ENERGY        2e-ENERGY     RMS[dD(SAO)]   TOL
  98  -2636.1159665105    -21251.123276     9755.6917314    0.139D-02 0.949D-15
                            Exc = -357.776246888     Coul =  10113.4679783    
                              N = 403.99938020    
                            current damping = 1.550
 
          Norm of current diis error: 0.93312E-07
          max. resid. norm for Fia-block=  1.691D-06 for orbital    119a         
          max. resid. fock norm         =  6.118D-04 for orbital   1229a         

 ITERATION  ENERGY          1e-ENERGY        2e-ENERGY     RMS[dD(SAO)]   TOL
  99  -2636.1159663946    -21251.123275     9755.6917315    0.192D-02 0.909D-15
                            Exc = -357.776246891     Coul =  10113.4679784    
                              N = 403.99938020    
                            current damping = 1.600
 
          Norm of current diis error: 0.10271E-06
          max. resid. norm for Fia-block=  1.596D-06 for orbital    119a         
          max. resid. fock norm         =  6.020D-04 for orbital   1229a         

 ITERATION  ENERGY          1e-ENERGY        2e-ENERGY     RMS[dD(SAO)]   TOL
 100  -2636.1159663368    -21251.123275     9755.6917315    0.183D-02 0.869D-15
                            Exc = -357.776246893     Coul =  10113.4679784    
                              N = 403.99938020    
                            current damping = 1.650
 
          Norm of current diis error: 0.11645E-06
          max. resid. norm for Fia-block=  1.175D-06 for orbital    119a         
          max. resid. fock norm         =  4.650D-04 for orbital   1229a         
          mo-orthogonalization: Cholesky decomposition

 ITERATION  ENERGY          1e-ENERGY        2e-ENERGY     RMS[dD(SAO)]   TOL
 101  -2636.1159665520    -21251.123276     9755.6917315    0.139D-02 0.840D-15
                            Exc = -357.776246894     Coul =  10113.4679784    
                              N = 403.99938020    
                            current damping = 1.700
 
          Norm of current diis error: 0.12774E-06
          max. resid. norm for Fia-block=  1.990D-06 for orbital    119a         
          max. resid. fock norm         =  8.315D-04 for orbital   1229a         

 ITERATION  ENERGY          1e-ENERGY        2e-ENERGY     RMS[dD(SAO)]   TOL
 102  -2636.1159664406    -21251.123276     9755.6917315    0.230D-02 0.793D-15
                            Exc = -357.776246897     Coul =  10113.4679784    
                              N = 403.99938020    
                            current damping = 1.750
 
          Norm of current diis error: 0.14254E-06
          max. resid. norm for Fia-block=  2.311D-06 for orbital    119a         
          max. resid. fock norm         =  1.040D-03 for orbital   1229a         

 ITERATION  ENERGY          1e-ENERGY        2e-ENERGY     RMS[dD(SAO)]   TOL
 103  -2636.1159662046    -21251.123275     9755.6917315    0.275D-02 0.744D-15
                            Exc = -357.776246900     Coul =  10113.4679784    
                              N = 403.99938020    
                            current damping = 1.800
 
          Norm of current diis error: 0.16265E-06
          max. resid. norm for Fia-block=  2.549D-06 for orbital    136a         
          max. resid. fock norm         =  1.195D-03 for orbital   1229a         

 ITERATION  ENERGY          1e-ENERGY        2e-ENERGY     RMS[dD(SAO)]   TOL
 104  -2636.1159664101    -21251.123276     9755.6917316    0.310D-02 0.706D-15
                            Exc = -357.776246903     Coul =  10113.4679785    
                              N = 403.99938020    
                            current damping = 1.850
 
          Norm of current diis error: 0.19917E-06
          max. resid. norm for Fia-block=  1.811D-06 for orbital    202a         
          max. resid. fock norm         =  9.095D-04 for orbital    945a         

 ITERATION  ENERGY          1e-ENERGY        2e-ENERGY     RMS[dD(SAO)]   TOL
 105  -2636.1159663268    -21251.123275     9755.6917315    0.237D-02 0.695D-15
                            Exc = -357.776246905     Coul =  10113.4679784    
                              N = 403.99938020    
                            current damping = 1.900
 
          Norm of current diis error: 0.23970E-06
          max. resid. norm for Fia-block=  3.323D-06 for orbital    196a         
          max. resid. fock norm         =  1.757D-03 for orbital   1229a         
          mo-orthogonalization: Cholesky decomposition

 ITERATION  ENERGY          1e-ENERGY        2e-ENERGY     RMS[dD(SAO)]   TOL
 106  -2636.1159665933    -21251.123276     9755.6917315    0.442D-02 0.550D-14
                            Exc = -357.776246904     Coul =  10113.4679784    
                              N = 403.99938020    
                            current damping = 1.950
 
          Norm of current diis error: 0.22343E-06
          max. resid. norm for Fia-block=  2.866D-06 for orbital    124a         
          max. resid. fock norm         =  1.296D-03 for orbital    969a         

 ITERATION  ENERGY          1e-ENERGY        2e-ENERGY     RMS[dD(SAO)]   TOL
 107  -2636.1159664783    -21251.123276     9755.6917316    0.139D-02 0.349D-14
                            Exc = -357.776246900     Coul =  10113.4679785    
                              N = 403.99938020    
                            current damping = 2.000
 
          Norm of current diis error: 0.19282E-06
          max. resid. norm for Fia-block=  3.581D-06 for orbital    202a         
          max. resid. fock norm         =  1.729D-03 for orbital    997a         

 ITERATION  ENERGY          1e-ENERGY        2e-ENERGY     RMS[dD(SAO)]   TOL
 108  -2636.1159665485    -21251.123276     9755.6917317    0.365D-02 0.252D-14
                            Exc = -357.776246900     Coul =  10113.4679786    
                              N = 403.99938020    
                            current damping = 1.850
 
          Norm of current diis error: 0.16470E-06
          max. resid. norm for Fia-block=  3.608D-06 for orbital    136a         
          max. resid. fock norm         =  1.726D-03 for orbital   1229a         

 ITERATION  ENERGY          1e-ENERGY        2e-ENERGY     RMS[dD(SAO)]   TOL
 109  -2636.1159664588    -21251.123276     9755.6917317    0.501D-02 0.212D-14
                            Exc = -357.776246902     Coul =  10113.4679786    
                              N = 403.99938020    
                            current damping = 1.900
 
          Norm of current diis error: 0.13231E-06
          max. resid. norm for Fia-block=  6.305D-06 for orbital    136a         
          max. resid. fock norm         =  2.454D-03 for orbital    969a         

 ITERATION  ENERGY          1e-ENERGY        2e-ENERGY     RMS[dD(SAO)]   TOL
 110  -2636.1159664653    -21251.123276     9755.6917318    0.616D-02 0.154D-14
                            Exc = -357.776246895     Coul =  10113.4679787    
                              N = 403.99938020    
                            current damping = 1.950
 
          Norm of current diis error: 0.11054E-06
          max. resid. norm for Fia-block=  4.258D-06 for orbital    136a         
          max. resid. fock norm         =  1.747D-03 for orbital    969a         
          mo-orthogonalization: Cholesky decomposition

 ITERATION  ENERGY          1e-ENERGY        2e-ENERGY     RMS[dD(SAO)]   TOL
[...]
          max. resid. fock norm         =  1.318D-03 for orbital    546a         

 ITERATION  ENERGY          1e-ENERGY        2e-ENERGY     RMS[dD(SAO)]   TOL
1400  -2636.1159665944    -21251.123276     9755.6917317    0.910D-04 0.100D-19
                            Exc = -357.776246875     Coul =  10113.4679786    
                              N = 403.99938020    
                            current damping =39.850
 
          Norm of current diis error: 0.35002E-07
          max. resid. norm for Fia-block=  1.721D-06 for orbital    119a         
          max. resid. fock norm         =  3.972D-04 for orbital   1278a         
          mo-orthogonalization: Cholesky decomposition

 ITERATION  ENERGY          1e-ENERGY        2e-ENERGY     RMS[dD(SAO)]   TOL
1401  -2636.1159664551    -21251.123276     9755.6917317    0.266D-04 0.634D-20
                            Exc = -357.776246875     Coul =  10113.4679786    
                              N = 403.99938020    
                            current damping =39.900
 
          Norm of current diis error: 0.34527E-07
          max. resid. norm for Fia-block=  1.882D-06 for orbital    119a         
          max. resid. fock norm         =  4.260D-04 for orbital   1416a         

 ITERATION  ENERGY          1e-ENERGY        2e-ENERGY     RMS[dD(SAO)]   TOL
1402  -2636.1159665566    -21251.123276     9755.6917317    0.289D-04 0.414D-20
                            Exc = -357.776246875     Coul =  10113.4679785    
                              N = 403.99938020    
                            current damping =39.950
 
          Norm of current diis error: 0.33792E-07
          max. resid. norm for Fia-block=  1.825D-06 for orbital    119a         
          max. resid. fock norm         =  4.230D-04 for orbital   1416a         

 ITERATION  ENERGY          1e-ENERGY        2e-ENERGY     RMS[dD(SAO)]   TOL
1403  -2636.1159665091    -21251.123276     9755.6917317    0.299D-04 0.313D-20
                            Exc = -357.776246875     Coul =  10113.4679786    
                              N = 403.99938020    
                            current damping =40.000
 
          Norm of current diis error: 0.34349E-07
          max. resid. norm for Fia-block=  1.580D-06 for orbital    119a         
          max. resid. fock norm         =  4.323D-04 for orbital   1416a         

 ITERATION  ENERGY          1e-ENERGY        2e-ENERGY     RMS[dD(SAO)]   TOL
1404  -2636.1159664943    -21251.123276     9755.6917316    0.300D-04 0.275D-20
                            Exc = -357.776246875     Coul =  10113.4679785    
                              N = 403.99938020    
                            current damping =40.050
 
          Norm of current diis error: 0.36326E-07
          max. resid. norm for Fia-block=  1.480D-06 for orbital    119a         
          max. resid. fock norm         =  4.075D-04 for orbital   1416a         

 ITERATION  ENERGY          1e-ENERGY        2e-ENERGY     RMS[dD(SAO)]   TOL
1405  -2636.1159664820    -21251.123276     9755.6917317    0.271D-04 0.253D-20
                            Exc = -357.776246875     Coul =  10113.4679786    
                              N = 403.99938020    
                            current damping =40.100
 
          Norm of current diis error: 0.38678E-07
          max. resid. norm for Fia-block=  1.356D-06 for orbital    119a         
          max. resid. fock norm         =  3.738D-04 for orbital   1416a         
          mo-orthogonalization: Cholesky decomposition

 ITERATION  ENERGY          1e-ENERGY        2e-ENERGY     RMS[dD(SAO)]   TOL
1406  -2636.1159665444    -21251.123276     9755.6917316    0.260D-04 0.237D-20
                            Exc = -357.776246875     Coul =  10113.4679785    
                              N = 403.99938020    
                            current damping =40.150
 
          Norm of current diis error: 0.39980E-07
          max. resid. norm for Fia-block=  1.809D-06 for orbital    119a         
          max. resid. fock norm         =  4.929D-04 for orbital   1416a         

 ITERATION  ENERGY          1e-ENERGY        2e-ENERGY     RMS[dD(SAO)]   TOL
1407  -2636.1159667018    -21251.123276     9755.6917316    0.300D-04 0.221D-20
                            Exc = -357.776246875     Coul =  10113.4679785    
                              N = 403.99938020    
                            current damping =40.000
 
          Norm of current diis error: 0.51262E-07
          max. resid. norm for Fia-block=  1.324D-06 for orbital    119a         
          max. resid. fock norm         =  3.762D-04 for orbital   1077a         

 ITERATION  ENERGY          1e-ENERGY        2e-ENERGY     RMS[dD(SAO)]   TOL
1408  -2636.1159665659    -21251.123276     9755.6917317    0.255D-04 0.213D-20
                            Exc = -357.776246875     Coul =  10113.4679785    
                              N = 403.99938020    
                            current damping =40.050
 
          Norm of current diis error: 0.59784E-07
          max. resid. norm for Fia-block=  1.545D-06 for orbital    119a         
          max. resid. fock norm         =  4.238D-04 for orbital   1077a         

 ITERATION  ENERGY          1e-ENERGY        2e-ENERGY     RMS[dD(SAO)]   TOL
1409  -2636.1159665421    -21251.123276     9755.6917316    0.265D-04 0.203D-20
                            Exc = -357.776246875     Coul =  10113.4679785    
                              N = 403.99938020    
                            current damping =40.100
 
          Norm of current diis error: 0.71318E-07
          max. resid. norm for Fia-block=  1.817D-06 for orbital    119a         
          max. resid. fock norm         =  4.759D-04 for orbital   1416a         

 ITERATION  ENERGY          1e-ENERGY        2e-ENERGY     RMS[dD(SAO)]   TOL
1410  -2636.1159665257    -21251.123276     9755.6917316    0.296D-04 0.191D-20
                            Exc = -357.776246875     Coul =  10113.4679785    
                              N = 403.99938020    
                            current damping =40.150
 
          Norm of current diis error: 0.85442E-07
          max. resid. norm for Fia-block=  1.978D-06 for orbital    119a         
          max. resid. fock norm         =  5.149D-04 for orbital   1416a         
          mo-orthogonalization: Cholesky decomposition

 ITERATION  ENERGY          1e-ENERGY        2e-ENERGY     RMS[dD(SAO)]   TOL
1411  -2636.1159666714    -21251.123276     9755.6917316    0.306D-04 0.179D-20
                            Exc = -357.776246875     Coul =  10113.4679784    
                              N = 403.99938020    
                            current damping =40.200
 
          Norm of current diis error: 0.10682E-06
          max. resid. norm for Fia-block=  2.479D-06 for orbital    119a         
          max. resid. fock norm         =  6.202D-04 for orbital    965a         

 ITERATION  ENERGY          1e-ENERGY        2e-ENERGY     RMS[dD(SAO)]   TOL
1412  -2636.1159666267    -21251.123276     9755.6917315    0.345D-04 0.168D-20
                            Exc = -357.776246875     Coul =  10113.4679784    
                              N = 403.99938020    
                            current damping =40.250
 
          Norm of current diis error: 0.14493E-06
          max. resid. norm for Fia-block=  3.134D-06 for orbital    119a         
          max. resid. fock norm         =  8.362D-04 for orbital    951a         

 ITERATION  ENERGY          1e-ENERGY        2e-ENERGY     RMS[dD(SAO)]   TOL
1413  -2636.1159667224    -21251.123276     9755.6917315    0.505D-04 0.156D-20
                            Exc = -357.776246875     Coul =  10113.4679784    
                              N = 403.99938020    
                            current damping =40.300
 
          Norm of current diis error: 0.17859E-06
          max. resid. norm for Fia-block=  1.748D-06 for orbital    119a         
          max. resid. fock norm         =  5.395D-04 for orbital    901a         

 ITERATION  ENERGY          1e-ENERGY        2e-ENERGY     RMS[dD(SAO)]   TOL
1414  -2636.1159666810    -21251.123276     9755.6917315    0.260D-04 0.153D-20
                            Exc = -357.776246875     Coul =  10113.4679784    
                              N = 403.99938020    
                            current damping =40.350
 
          Norm of current diis error: 0.19130E-06
          max. resid. norm for Fia-block=  3.061D-06 for orbital    119a         
          max. resid. fock norm         =  1.040D-03 for orbital    978a         

 ITERATION  ENERGY          1e-ENERGY        2e-ENERGY     RMS[dD(SAO)]   TOL
1415  -2636.1159667658    -21251.123276     9755.6917314    0.465D-04 0.143D-20
                            Exc = -357.776246875     Coul =  10113.4679783    
                              N = 403.99938020    
                            current damping =40.400
 
          Norm of current diis error: 0.21697E-06
          max. resid. norm for Fia-block=  7.464D-06 for orbital    119a         
          max. resid. fock norm         =  2.855D-03 for orbital    951a         
          mo-orthogonalization: Cholesky decomposition

 ITERATION  ENERGY          1e-ENERGY        2e-ENERGY     RMS[dD(SAO)]   TOL
1416  -2636.1159667189    -21251.123276     9755.6917315    0.150D-03 0.126D-20
                            Exc = -357.776246875     Coul =  10113.4679783    
                              N = 403.99938020    
                            current damping =40.450
 
          Norm of current diis error: 0.32562E-06
          max. resid. norm for Fia-block=  1.072D-05 for orbital    119a         
          max. resid. fock norm         =  4.994D-03 for orbital    951a         

 ITERATION  ENERGY          1e-ENERGY        2e-ENERGY     RMS[dD(SAO)]   TOL
1417  -2636.1159665493    -21251.123276     9755.6917316    0.290D-03 0.126D-20
                            Exc = -357.776246875     Coul =  10113.4679785    
                              N = 403.99938020    
                            current damping =40.500
 
          Norm of current diis error: 0.20785E-06
          max. resid. norm for Fia-block=  1.070D-05 for orbital    119a         
          max. resid. fock norm         =  5.545D-03 for orbital    951a         

 ITERATION  ENERGY          1e-ENERGY        2e-ENERGY     RMS[dD(SAO)]   TOL
1418  -2636.1159666615    -21251.123276     9755.6917316    0.341D-03 0.126D-20
                            Exc = -357.776246876     Coul =  10113.4679785    
                              N = 403.99938020    
                            current damping =40.550
 
          Norm of current diis error: 0.16020E-06
          max. resid. norm for Fia-block=  1.096D-05 for orbital    119a         
          max. resid. fock norm         =  4.133D-03 for orbital    951a         

 ITERATION  ENERGY          1e-ENERGY        2e-ENERGY     RMS[dD(SAO)]   TOL
1419  -2636.1159668027    -21251.123276     9755.6917314    0.276D-03 0.126D-20
                            Exc = -357.776246876     Coul =  10113.4679783    
                              N = 403.99938020    
                            current damping =40.600
 
          Norm of current diis error: 0.23538E-06
          max. resid. norm for Fia-block=  1.146D-05 for orbital    119a         
          max. resid. fock norm         =  3.857D-03 for orbital    727a         

 ITERATION  ENERGY          1e-ENERGY        2e-ENERGY     RMS[dD(SAO)]   TOL
1420  -2636.1159667959    -21251.123276     9755.6917314    0.272D-03 0.126D-20
                            Exc = -357.776246876     Coul =  10113.4679783    
                              N = 403.99938020    
                            current damping =40.650
 
          Norm of current diis error: 0.29360E-06
          max. resid. norm for Fia-block=  1.175D-05 for orbital    119a         
          max. resid. fock norm         =  3.606D-03 for orbital    978a         
          mo-orthogonalization: Cholesky decomposition

 ITERATION  ENERGY          1e-ENERGY        2e-ENERGY     RMS[dD(SAO)]   TOL
1421  -2636.1159665730    -21251.123276     9755.6917317    0.253D-03 0.100D-19
                            Exc = -357.776246876     Coul =  10113.4679786    
                              N = 403.99938020    
                            current damping =40.700
 
          Norm of current diis error: 0.40997E-07
          max. resid. norm for Fia-block=  7.810D-07 for orbital    119a         
          max. resid. fock norm         =  2.458D-04 for orbital   1232a         

 ITERATION  ENERGY          1e-ENERGY        2e-ENERGY     RMS[dD(SAO)]   TOL
1422  -2636.1159664844    -21251.123276     9755.6917317    0.181D-04 0.634D-20
                            Exc = -357.776246876     Coul =  10113.4679786    
                              N = 403.99938020    
                            current damping =40.750
 
          Norm of current diis error: 0.40559E-07
          max. resid. norm for Fia-block=  6.505D-07 for orbital    119a         
          max. resid. fock norm         =  2.899D-04 for orbital    969a         

 ITERATION  ENERGY          1e-ENERGY        2e-ENERGY     RMS[dD(SAO)]   TOL
1423  -2636.1159665909    -21251.123276     9755.6917317    0.194D-04 0.418D-20
                            Exc = -357.776246876     Coul =  10113.4679786    
                              N = 403.99938020    
                            current damping =40.800
 
          Norm of current diis error: 0.39562E-07
          max. resid. norm for Fia-block=  6.499D-07 for orbital    202a         
          max. resid. fock norm         =  2.704D-04 for orbital   1232a         

 ITERATION  ENERGY          1e-ENERGY        2e-ENERGY     RMS[dD(SAO)]   TOL
1424  -2636.1159665365    -21251.123276     9755.6917317    0.222D-04 0.320D-20
                            Exc = -357.776246876     Coul =  10113.4679786    
                              N = 403.99938020    
                            current damping =40.850
 
          Norm of current diis error: 0.38954E-07
          max. resid. norm for Fia-block=  1.096D-06 for orbital    119a         
          max. resid. fock norm         =  4.488D-04 for orbital    727a         

 ITERATION  ENERGY          1e-ENERGY        2e-ENERGY     RMS[dD(SAO)]   TOL
1425  -2636.1159664504    -21251.123276     9755.6917317    0.301D-04 0.278D-20
                            Exc = -357.776246877     Coul =  10113.4679786    
                              N = 403.99938020    
                            current damping =40.900
 
          Norm of current diis error: 0.36769E-07
          max. resid. norm for Fia-block=  9.481D-07 for orbital    119a         
          max. resid. fock norm         =  4.157D-04 for orbital    727a         
          mo-orthogonalization: Cholesky decomposition

 ITERATION  ENERGY          1e-ENERGY        2e-ENERGY     RMS[dD(SAO)]   TOL
1426  -2636.1159665461    -21251.123276     9755.6917317    0.288D-04 0.246D-20
                            Exc = -357.776246877     Coul =  10113.4679786    
                              N = 403.99938020    
                            current damping =40.950
 
          Norm of current diis error: 0.35579E-07
          max. resid. norm for Fia-block=  7.303D-07 for orbital    119a         
          max. resid. fock norm         =  3.848D-04 for orbital    718a         

 ITERATION  ENERGY          1e-ENERGY        2e-ENERGY     RMS[dD(SAO)]   TOL
1427  -2636.1159664745    -21251.123276     9755.6917317    0.261D-04 0.224D-20
                            Exc = -357.776246877     Coul =  10113.4679785    
                              N = 403.99938020    
                            current damping =41.000
 
          Norm of current diis error: 0.34937E-07
          max. resid. norm for Fia-block=  6.519D-07 for orbital    109a         
          max. resid. fock norm         =  3.703D-04 for orbital    718a         

 ITERATION  ENERGY          1e-ENERGY        2e-ENERGY     RMS[dD(SAO)]   TOL
1428  -2636.1159665428    -21251.123276     9755.6917317    0.234D-04 0.205D-20
                            Exc = -357.776246877     Coul =  10113.4679785    
                              N = 403.99938020    
                            current damping =41.050
 
          Norm of current diis error: 0.38440E-07
          max. resid. norm for Fia-block=  7.016D-07 for orbital     98a         
          max. resid. fock norm         =  3.537D-04 for orbital    969a         

 ITERATION  ENERGY          1e-ENERGY        2e-ENERGY     RMS[dD(SAO)]   TOL
1429  -2636.1159664695    -21251.123276     9755.6917317    0.225D-04 0.189D-20
                            Exc = -357.776246877     Coul =  10113.4679786    
                              N = 403.99938020    
                            current damping =41.100
 
          Norm of current diis error: 0.44791E-07
          max. resid. norm for Fia-block=  7.594D-07 for orbital    119a         
          max. resid. fock norm         =  3.470D-04 for orbital    969a         

 ITERATION  ENERGY          1e-ENERGY        2e-ENERGY     RMS[dD(SAO)]   TOL
1430  -2636.1159665338    -21251.123276     9755.6917317    0.221D-04 0.177D-20
                            Exc = -357.776246877     Coul =  10113.4679786    
                              N = 403.99938020    
                            current damping =41.150
 
          Norm of current diis error: 0.50505E-07
          max. resid. norm for Fia-block=  1.049D-06 for orbital    119a         
          max. resid. fock norm         =  3.969D-04 for orbital    978a         
          mo-orthogonalization: Cholesky decomposition

 ITERATION  ENERGY          1e-ENERGY        2e-ENERGY     RMS[dD(SAO)]   TOL
1431  -2636.1159664500    -21251.123276     9755.6917317    0.225D-04 0.164D-20
                            Exc = -357.776246877     Coul =  10113.4679786    
                              N = 403.99938020    
                            current damping =41.200
 
          Norm of current diis error: 0.68816E-07
          max. resid. norm for Fia-block=  7.998D-07 for orbital    119a         
          max. resid. fock norm         =  3.369D-04 for orbital    978a         

 ITERATION  ENERGY          1e-ENERGY        2e-ENERGY     RMS[dD(SAO)]   TOL
1432  -2636.1159663876    -21251.123276     9755.6917318    0.191D-04 0.155D-20
                            Exc = -357.776246877     Coul =  10113.4679787    
                              N = 403.99938020    
                            current damping =41.250
 
          Norm of current diis error: 0.95112E-07
          max. resid. norm for Fia-block=  1.343D-06 for orbital    202a         
          max. resid. fock norm         =  7.046D-04 for orbital    940a         

 ITERATION  ENERGY          1e-ENERGY        2e-ENERGY     RMS[dD(SAO)]   TOL
1433  -2636.1159664785    -21251.123276     9755.6917317    0.482D-04 0.142D-20
                            Exc = -357.776246877     Coul =  10113.4679785    
                              N = 403.99938020    
                            current damping =41.300
 
          Norm of current diis error: 0.10138E-06
          max. resid. norm for Fia-block=  1.588D-06 for orbital    202a         
          max. resid. fock norm         =  8.682D-04 for orbital    940a         

 ITERATION  ENERGY          1e-ENERGY        2e-ENERGY     RMS[dD(SAO)]   TOL
1434  -2636.1159667337    -21251.123276     9755.6917315    0.599D-04 0.129D-20
                            Exc = -357.776246877     Coul =  10113.4679784    
                              N = 403.99938020    
                            current damping =41.350
 
          Norm of current diis error: 0.23184E-06
          max. resid. norm for Fia-block=  3.835D-06 for orbital    119a         
          max. resid. fock norm         =  2.021D-03 for orbital   1229a         
