           Doing BLAS/Lapack in the master proc. with  8 CPUs.
           SMPCPUS    set: Shared-memory Parallelization with   8 CPUs.

           SMP Parallelization Reference:
           C. van Wullen, J. Comput. Chem. 32 (2011) 1195--1201
 operating system is UNIX !

 ridft (c-18-132.gp.local) : TURBOMOLE V7.2 ( 21454 ) 4 Oct 2017 at 12:48:15
 Copyright (C) 2017 TURBOMOLE GmbH, Karlsruhe


    2018-04-24 21:11:24.875 



                                  r i d f t

                        DFT program with RI approximation 
                                for coulomb part 




                                                 
                                 References:     
                                                 
          TURBOMOLE:                             
              R. Ahlrichs, M. Baer, M. Haeser, H. Horn, and
              C. Koelmel
              Electronic structure calculations on workstation
              computers: the program system TURBOMOLE
              Chem. Phys. Lett. 162: 165 (1989)
          Density Functional:                              
              O. Treutler and R. Ahlrichs                      
              Efficient Molecular Numerical Integration Schemes
              J. Chem. Phys. 102: 346 (1995)                   
          Parallel Version:                                
              Performance of parallel TURBOMOLE for Density    
              Functional Calculations                          
              M. v. Arnim and R. Ahlrichs                      
              J. Comp. Chem. 19: 1746 (1998)                   
          RI-J Method:                                     
              Auxiliary Basis Sets to approximate Coulomb      
              Potentials                                       
              Chem. Phys. Lett. 240: 283 (1995)                
              K. Eichkorn, O. Treutler, H. Oehm, M. Haeser     
              and R. Ahlrichs                                  
              Chem. Phys. Lett. 242: 652 (1995)                
                                                           
              Auxiliary Basis Sets for Main Row Atoms and their
              Use to approximate Coulomb Potentials            
              K. Eichkorn, F. Weigend, O. Treutler and         
              R. Ahlrichs                                      
              Theo. Chem. Acc. 97: 119 (1997)                   
                                                           
              Accurate Coulomb-fitting basis sets for H to Rn 
              F. Weigend                                        
              Phys. Chem. Chem. Phys. 8: 1057 (2006)            
                                                           
          Multipole accelerated RI-J (MARI-J):             
              Fast evaluation of the Coulomb potential for     
              electron densities using multipole accelerated   
              resolution of identity approximation             
              M. Sierka, A. Hogekamp and R. Ahlrichs           
              J. Chem. Phys. 118: 9136 (2003)                  
          RI-JK Method:                                     
              A fully direct RI-HF algorithm: Implementation,
              optimised auxiliary basis sets, demonstration of
              accuracy and efficiency                         
              F. Weigend                                      
              Phys. Chem. Chem. Phys. 4: 4285 (2002)           
          Two-component HF and DFT with spin-orbit coupling:  
              Self-consistent treatment of spin-orbit         
              interactions with efficient Hartree-Fock and    
              density functional methods                      
              M. K. Armbruster, F. Weigend, C. van Wüllen and 
              W. Klopper                                      
              Phys. Chem. Chem. Phys. 10: 1748 (2008)         
          Relativistic all-electron 2c calculations           
              An efficient implementation of two-component    
              relativistic exact-decoupling methods for large 
              molecules                                       
              D. Peng, N. Middendorf, F. Weigend, M. Reiher   
              J. Chem. Phys. 138, 184105 (2013)               
                                         




              +--------------------------------------------------+
              |      general information about current run       |
              +--------------------------------------------------+

 

 DENSITY CONVERGENCE CHECK SWITCHED ON !
 SCF CONVERGENCE IF RMS(delta[D]) <     0.1000000000E-06

 PBE functional
 exchange:    LDA + PBE
 correlation: LDA (PW) + PBE
 A DFT calculation using the RI-J approximation will be carried out.
 Allocatable memory for RI due to $ricore (MB):                   500


              +--------------------------------------------------+
              | Atomic coordinate, charge and isotop information |
              +--------------------------------------------------+

                    atomic coordinates            atom    charge  isotop
         -2.32951643    2.28966581   -0.26763069    c      6.000     0
         -1.07955646    4.23679572    0.04840871    o      8.000     0
         -1.26721351    0.00734873   -0.59390591    n      7.000     0
          0.64977656   -0.17113380   -0.58265296    h      1.000     0
         -2.35122321   -1.52373097   -0.84410799    h      1.000     0
         -5.17453305    2.39382506   -0.29458293    c      6.000     0
         -5.81653043    3.11163270    1.52028768    h      1.000     0
         -6.05112046    0.57233283   -0.65424419    h      1.000     0
         -5.76364103    3.73313601   -1.73589745    h      1.000     0
          7.92780344    2.11163411   -0.22590150    n      7.000     0
          8.85382489    0.45631493   -0.44877291    h      1.000     0
          9.44643651    4.27129806    0.05846769    c      6.000     0
         11.74351584    4.09059805    0.02977262    o      8.000     0
          7.98644889    6.56791337    0.36676505    c      6.000     0
          8.97243805    8.33139231    0.59926774    h      1.000     0
          5.43690463    6.45136351    0.35603754    c      6.000     0
          4.26451088    8.10744464    0.57841465    h      1.000     0
          4.14228707    4.23607251    0.06395057    n      7.000     0
          2.19059592    4.21894958    0.06236827    h      1.000     0
          5.33449633    1.95995503   -0.24267646    c      6.000     0
          4.20597318   -0.05055477   -0.51065378    o      8.000     0
 
       center of nuclear mass  :    3.75587701    3.13141367   -0.11280522
       center of nuclear charge:    3.59699613    3.12378403   -0.11553148

              +--------------------------------------------------+
              |               basis set information              |
              +--------------------------------------------------+

              we will work with the 1s 3p 5d 7f 9g ... basis set
              ...i.e. with spherical basis functions...

   type   atoms  prim   cont   basis
   ---------------------------------------------------------------------------
    c        6     77     57   def2-QZVP   [7s4p3d2f1g|15s8p3d2f1g]
    o        3     77     57   def2-QZVP   [7s4p3d2f1g|15s8p3d2f1g]
    n        3     77     57   def2-QZVP   [7s4p3d2f1g|15s8p3d2f1g]
    h        9     33     30   def2-QZVP   [4s3p2d1f|7s3p2d1f]
   ---------------------------------------------------------------------------
   total:   21   1221    954
   ---------------------------------------------------------------------------

   total number of primitive shells          :  100
   total number of contracted shells         :  294
   total number of cartesian basis functions : 1179
   total number of SCF-basis functions       :  954


 integral neglect threshold       :  0.28E-13
 integral storage threshold THIZE :  0.10E-04
 integral storage threshold THIME :         5

 RI-J AUXILIARY BASIS SET information:

              we will work with the 1s 3p 5d 7f 9g ... basis set
              ...i.e. with spherical basis functions...

   type   atoms  prim   cont   basis
   ---------------------------------------------------------------------------
    c        6     70     49   def2-QZVP   [6s4p3d1f1g|12s5p4d2f1g]
    o        3     70     49   def2-QZVP   [6s4p3d1f1g|12s5p4d2f1g]
    n        3     70     49   def2-QZVP   [6s4p3d1f1g|12s5p4d2f1g]
    h        9     16     11   def2-QZVP   [3s1p1d|5s2p1d]
   ---------------------------------------------------------------------------
   total:   21    984    687
   ---------------------------------------------------------------------------

   total number of primitive shells          :   80
   total number of contracted shells         :  225
   total number of cartesian basis functions :  840
   total number of SCF-basis functions       :  687


 symmetry group of the molecule :   c1 

 the group has the following generators :
   c1(z)

    1 symmetry operations found

 there are 1 real representations :   a   

 maximum number of shells which are related by symmetry :  1


    mo occupation :
   irrep   mo's   occupied
    a      954       45
 
 number of basis functions   :                    954
 number of occupied orbitals :                     45
 
  
           ------------------
           density functional
           ------------------
 PBE functional
 exchange:    LDA + PBE
 correlation: LDA (PW) + PBE

 iterations will be done with small grid
  
 spherical integration : Lebedev's spherical grid
 spherical gridsize    :                     5
    i.e. gridpoints    :                   590
 value for diffuse not defined
 radial integration    : Chebyshev 2nd kind (scaling 3)
 radial gridsize       :                     8
 integration cells     :                    21
 partition function    : becke
 partition sharpness   :                     3
  

 biggest AO integral is expected to be     6.990327543
  
           ------------------------
               RI-J - INFORMATION
           ------------------------
 Contributions to RI integral batches: 
  neglected integral batches:                 15049
  direct contribution:                        20712
  memory contribution:                  7604
 Memory core needed for (P|Q) and Cholesky      4 MByte
 Memory core minimum needed except of (P|Q)     1 MByte
 Total minimum memory core needed (sum)         5 MByte
  
 ****************************************
 Memory allocated for RI-J   213 MByte
 ****************************************
                                            

          ------------------------
          nuclear repulsion energy  :   682.464506840    
          ------------------------


         -----------------
         -S,T+V- integrals
         -----------------

 1e-integrals will be neglected if expon. factor < 0.283457E-14
 Difference densities >>NOT<< switched on in parallel ridft!

 DIIS switched on: error vector is FDS-SDF
 Max. Iterations for DIIS is     :   4
 DIIS matrix (see manual) 
    Scaling factor of diagonals  :  1.200
    threshold for scaling factor :  0.000

 scf convergence criterion : increment of total energy < .1000000D-08
                  and increment of one-electron energy < .1000000D-05

  MOs are in ASCII format !


 automatic virtual orbital shift switched on 
      shift if e(lumo)-e(homo) < 0.10000000    


 reading orbital data $scfmo  from file mos
 orbital characterization : expanded
 mo provided and orthogonalized by Cholesky decomposition

 DSCF restart information will be dumped onto file mos


 Starting SCF iterations

          Overall gridpoints after grid construction =        105386

 ITERATION  ENERGY          1e-ENERGY        2e-ENERGY     RMS[dD(SAO)]   TOL
   1  -620.81271019106    -2190.7985842     887.52136712    0.000D+00 0.283D-13
                            Exc = -81.4139109833     Coul =  968.935278107    
                              N = 90.000043032    
                            current damping = 0.700
 
          max. resid. norm for Fia-block=  8.086D-01 for orbital     15a         
          max. resid. fock norm         =  6.633D+01 for orbital    867a         

 ITERATION  ENERGY          1e-ENERGY        2e-ENERGY     RMS[dD(SAO)]   TOL
   2  -623.23458410926    -2199.4918429     893.79275200    0.359D-02 0.283D-13
                            Exc = -81.4046328372     Coul =  975.197384837    
                              N = 90.000037559    
                            current damping = 0.650
 
          Norm of current diis error:  4.1102    
          max. resid. norm for Fia-block=  1.634D-01 for orbital      3a         
          max. resid. fock norm         =  3.328D-01 for orbital    543a         

 ITERATION  ENERGY          1e-ENERGY        2e-ENERGY     RMS[dD(SAO)]   TOL
   3  -623.54151740433    -2203.2115034     897.20547915    0.179D-02 0.283D-13
                            Exc = -81.8221568923     Coul =  979.027636045    
                              N = 90.000034491    
                            current damping = 0.550
 
          Norm of current diis error:  1.9641    
          max. resid. norm for Fia-block=  6.610D-02 for orbital      3a         
          max. resid. fock norm         =  6.980D-02 for orbital      3a         

 ITERATION  ENERGY          1e-ENERGY        2e-ENERGY     RMS[dD(SAO)]   TOL
   4  -623.63410468479    -2203.1107524     897.01214089    0.124D-02 0.283D-13
                            Exc = -81.6818746236     Coul =  978.694015514    
                              N = 90.000034949    
                            current damping = 0.600
 
          Norm of current diis error: 0.90823    
          max. resid. norm for Fia-block=  3.415D-02 for orbital     15a         
          max. resid. fock norm         =  7.365D-02 for orbital    867a         

 ITERATION  ENERGY          1e-ENERGY        2e-ENERGY     RMS[dD(SAO)]   TOL
   5  -623.65142116886    -2203.8023265     897.68639849    0.495D-03 0.283D-13
                            Exc = -81.8268852450     Coul =  979.513283731    
                              N = 90.000034637    
                            current damping = 0.650
 
          Norm of current diis error: 0.48348    
          max. resid. norm for Fia-block=  1.004D-02 for orbital     45a         
          max. resid. fock norm         =  1.367D-02 for orbital    800a         
          mo-orthogonalization: Cholesky decomposition

 ITERATION  ENERGY          1e-ENERGY        2e-ENERGY     RMS[dD(SAO)]   TOL
   6  -623.65776183090    -2204.1507302     898.02846151    0.321D-03 0.283D-13
                            Exc = -81.8338836824     Coul =  979.862345196    
                              N = 90.000034608    
                            current damping = 0.500
 
          Norm of current diis error: 0.14079    
          max. resid. norm for Fia-block=  5.284D-03 for orbital     43a         
          max. resid. fock norm         =  1.002D-02 for orbital    953a         

 ITERATION  ENERGY          1e-ENERGY        2e-ENERGY     RMS[dD(SAO)]   TOL
   7  -623.65818612546    -2203.8912722     897.76857923    0.155D-03 0.283D-13
                            Exc = -81.8100045001     Coul =  979.578583730    
                              N = 90.000035222    
                            current damping = 0.550
 
          Norm of current diis error: 0.97359E-01
          max. resid. norm for Fia-block=  2.815D-03 for orbital     14a         
          max. resid. fock norm         =  6.837D-03 for orbital    953a         

 ITERATION  ENERGY          1e-ENERGY        2e-ENERGY     RMS[dD(SAO)]   TOL
   8  -623.65839491159    -2203.9774506     897.85454885    0.672D-04 0.283D-13
                            Exc = -81.8128787166     Coul =  979.667427564    
                              N = 90.000035196    
                            current damping = 0.600
 
          Norm of current diis error: 0.46451E-01
          max. resid. norm for Fia-block=  1.904D-03 for orbital     45a         
          max. resid. fock norm         =  3.089D-03 for orbital    909a         

 ITERATION  ENERGY          1e-ENERGY        2e-ENERGY     RMS[dD(SAO)]   TOL
   9  -623.65843339177    -2204.0311238     897.90818360    0.179D-04 0.283D-13
                            Exc = -81.8249027239     Coul =  979.733086322    
                              N = 90.000035057    
                            current damping = 0.450
 
          Norm of current diis error: 0.26473E-01
          max. resid. norm for Fia-block=  7.680D-04 for orbital     45a         
          max. resid. fock norm         =  8.872D-04 for orbital     45a         

 ITERATION  ENERGY          1e-ENERGY        2e-ENERGY     RMS[dD(SAO)]   TOL
  10  -623.65844714040    -2204.0342011     897.91124713    0.158D-04 0.283D-13
                            Exc = -81.8217444444     Coul =  979.732991573    
                              N = 90.000035099    
                            current damping = 0.300
 
          Norm of current diis error: 0.16388E-01
          max. resid. norm for Fia-block=  3.697D-04 for orbital     42a         
          max. resid. fock norm         =  5.527D-04 for orbital    889a         
          mo-orthogonalization: Cholesky decomposition

 ITERATION  ENERGY          1e-ENERGY        2e-ENERGY     RMS[dD(SAO)]   TOL
  11  -623.65845313513    -2204.0165774     897.89361743    0.390D-05 0.283D-13
                            Exc = -81.8207593023     Coul =  979.714376735    
                              N = 90.000035138    
                            current damping = 0.350
 
          Norm of current diis error: 0.41672E-02
          max. resid. norm for Fia-block=  1.207D-04 for orbital     23a         
          max. resid. fock norm         =  2.009D-04 for orbital    953a         

 ITERATION  ENERGY          1e-ENERGY        2e-ENERGY     RMS[dD(SAO)]   TOL
  12  -623.65845332249    -2204.0179719     897.89501173    0.166D-05 0.283D-13
                            Exc = -81.8208615499     Coul =  979.715873276    
                              N = 90.000035126    
                            current damping = 0.400
 
          Norm of current diis error: 0.26139E-02
          max. resid. norm for Fia-block=  5.905D-05 for orbital     44a         
          max. resid. fock norm         =  1.736D-04 for orbital    953a         

 ITERATION  ENERGY          1e-ENERGY        2e-ENERGY     RMS[dD(SAO)]   TOL
  13  -623.65845349106    -2204.0174415     897.89448115    0.101D-05 0.283D-13
                            Exc = -81.8209351003     Coul =  979.715416250    
                              N = 90.000035128    
                            current damping = 0.450
 
          Norm of current diis error: 0.84549E-03
          max. resid. norm for Fia-block=  2.041D-05 for orbital     42a         
          max. resid. fock norm         =  4.177D-05 for orbital    952a         

 ITERATION  ENERGY          1e-ENERGY        2e-ENERGY     RMS[dD(SAO)]   TOL
  14  -623.65845350798    -2204.0191965     897.89623619    0.256D-06 0.283D-13
                            Exc = -81.8210550419     Coul =  979.717291229    
                              N = 90.000035128    
                            current damping = 0.500
 
          Norm of current diis error: 0.29142E-03
          max. resid. norm for Fia-block=  8.823D-06 for orbital     40a         
          max. resid. fock norm         =  9.825D-06 for orbital    512a         

 ITERATION  ENERGY          1e-ENERGY        2e-ENERGY     RMS[dD(SAO)]   TOL
  15  -623.65845350957    -2204.0185933     897.89563296    0.117D-06 0.283D-13
                            Exc = -81.8209793416     Coul =  979.716612298    
                              N = 90.000035128    
                            current damping = 0.550
 
          Norm of current diis error: 0.14702E-03
          max. resid. norm for Fia-block=  4.345D-06 for orbital     41a         
          max. resid. fock norm         =  6.985D-06 for orbital    849a         
          mo-orthogonalization: Cholesky decomposition

 DENSITY CONVERGED !


 ITERATION  ENERGY          1e-ENERGY        2e-ENERGY     RMS[dD(SAO)]   TOL
  16  -623.65845350991    -2204.0184302     897.89546983    0.455D-07 0.283D-13
                            Exc = -81.8209871854     Coul =  979.716457013    
                              N = 90.000035128    
                            current damping = 0.400
 
          Norm of current diis error: 0.96952E-04
          max. resid. norm for Fia-block=  1.901D-06 for orbital     41a         
          max. resid. fock norm         =  2.719D-06 for orbital    849a         

 DENSITY CONVERGED !


 ITERATION  ENERGY          1e-ENERGY        2e-ENERGY     RMS[dD(SAO)]   TOL
  17  -623.65845351013    -2204.0184933     897.89553294    0.208D-07 0.283D-13
                            Exc = -81.8209882898     Coul =  979.716521234    
                              N = 90.000035128    
                            current damping = 0.450
 
          Norm of current diis error: 0.18814E-04
          max. resid. norm for Fia-block=  6.850D-07 for orbital     44a         
          max. resid. fock norm         =  1.377D-06 for orbital    952a         

 DENSITY CONVERGED !


 ITERATION  ENERGY          1e-ENERGY        2e-ENERGY     RMS[dD(SAO)]   TOL
  18  -623.65845351012    -2204.0185202     897.89555985    0.110D-07 0.283D-13
                            Exc = -81.8209906896     Coul =  979.716550538    
                              N = 90.000035128    
                            current damping = 0.300
 
          Norm of current diis error: 0.17476E-04
          max. resid. norm for Fia-block=  3.748D-07 for orbital     44a         
          max. resid. fock norm         =  9.558D-07 for orbital    952a         

 ENERGY & DENSITY CONVERGED !

          Overall gridpoints after grid construction =        336479

 ITERATION  ENERGY          1e-ENERGY        2e-ENERGY     RMS[dD(SAO)]   TOL
  19  -623.65846065722    -2204.0185347     897.89556716    0.647D-08 0.283D-13
                            Exc = -81.8209981833     Coul =  979.716565342    
                              N = 89.999998171    
                            current damping = 0.150
 
          Norm of current diis error: 0.70545E-05
          max. resid. norm for Fia-block=  2.114D-07 for orbital     40a         
          max. resid. fock norm         =  2.499D-07 for orbital    883a         

 End of SCF iterations

   convergence criteria satisfied after    19 iterations


                  ------------------------------------------ 
                 |  total energy      =   -623.65846065722  |
                  ------------------------------------------ 
                 :  kinetic energy    =    621.40765601130  :
                 :  potential energy  =  -1245.06611666852  :
                 :  virial theorem    =      1.99639096591  :
                 :  wavefunction norm =      1.00000000000  :
                  .......................................... 


 <geterg> : there is no data group $energy 


 <skperg> : $end is missing 


 orbitals $scfmo  will be written to file mos

    irrep                 41a         42a         43a         44a         45a   
 eigenvalues H         -0.25714    -0.25349    -0.23718    -0.22194    -0.22090
            eV          -6.9971     -6.8979     -6.4540     -6.0395     -6.0110
 occupation              2.0000      2.0000      2.0000      2.0000      2.0000 

    irrep                 46a         47a         48a         49a         50a   
 eigenvalues H         -0.07496    -0.03871    -0.02870    -0.01522     0.00949
            eV          -2.0397     -1.0533     -0.7810     -0.4143      0.2581
 
 
 
 
 ==============================================================================
                           electrostatic moments
 ==============================================================================

 reference point for electrostatic moments:    0.00000   0.00000   0.00000

 
              nuc           elec       ->  total
 ------------------------------------------------------------------------------
                          charge      
 ------------------------------------------------------------------------------
          90.000000     -90.000000      -0.000000
 
 ------------------------------------------------------------------------------
                       dipole moment  
 ------------------------------------------------------------------------------
   x     323.729652    -325.887562      -2.157910
   y     281.140563    -281.435606      -0.295043
   z     -10.397833      10.328311      -0.069522
 
   | dipole moment | =     2.1791 a.u. =     5.5387 debye 
 
 ------------------------------------------------------------------------------
                     quadrupole moment
 ------------------------------------------------------------------------------
  xx    3576.351842   -3648.536885     -72.185043
  yy    1320.654852   -1369.725195     -49.070343
  zz      15.562489     -68.394470     -52.831981
  xy    1392.640171   -1396.480345      -3.840174
  xz      28.139532     -27.417919       0.721612
  yz      29.322100     -28.629003       0.693097
 
     1/3  trace=     -58.029122
     anisotropy=      22.555138
 
 ==============================================================================
 


    ------------------------------------------------------------------------
         total  cpu-time : 14 minutes and 55 seconds
         total wall-time :  2 minutes and 18 seconds
    ------------------------------------------------------------------------

   ****  ridft : all done  ****


    2018-04-24 21:13:42.561 

