Using Slurm to start processes with PMI2
STARTING ridft ON 8 PROCESSORS!
RUNNING PROGRAM /beegfs/modfac/apps/TURBOMOLE/7.0_intel_GA/bin/em64t-unknown-linux-gnu_mpi/ridft_mpi.
PLEASE WAIT UNTIL ridft HAS FINISHED.
Look for the output in slave1.output.
  this is node-proc. number 1 running on node c-7-7.local
  the total number of node-proc. spawned is            8
  parallel platform: MPP, or cluster with fast interconnect

 ridft (c-7-7.local) : TURBOMOLE V7.0.2( ) 15 Jan 2016 at 17:47:42
 Copyright (C) 2016 TURBOMOLE GmbH, Karlsruhe


    2017-11-07 22:05:04.664 



                                  r i d f t

                        DFT program with RI approximation 
                                for coulomb part 




                                                 
                                 References:     
                                                 
          TURBOMOLE:                             
              R. Ahlrichs, M. Baer, M. Haeser, H. Horn, and
              C. Koelmel
              Electronic structure calculations on workstation
              computers: the program system TURBOMOLE
              Chem. Phys. Lett. 162: 165 (1989)
          Density Functional:                              
              O. Treutler and R. Ahlrichs                      
              Efficient Molecular Numerical Integration Schemes
              J. Chem. Phys. 102: 346 (1995)                   
          Parallel Version:                                
              Performance of parallel TURBOMOLE for Density    
              Functional Calculations                          
              M. v. Arnim and R. Ahlrichs                      
              J. Comp. Chem. 19: 1746 (1998)                   
          RI-J Method:                                     
              Auxiliary Basis Sets to approximate Coulomb      
              Potentials                                       
              Chem. Phys. Lett. 240: 283 (1995)                
              K. Eichkorn, O. Treutler, H. Oehm, M. Haeser     
              and R. Ahlrichs                                  
              Chem. Phys. Lett. 242: 652 (1995)                
                                                           
              Auxiliary Basis Sets for Main Row Atoms and their
              Use to approximate Coulomb Potentials            
              K. Eichkorn, F. Weigend, O. Treutler and         
              R. Ahlrichs                                      
              Theo. Chem. Acc. 97: 119 (1997)                   
                                                           
              Accurate Coulomb-fitting basis sets for H to Rn 
              F. Weigend                                        
              Phys. Chem. Chem. Phys. 8: 1057 (2006)            
                                                           
          Multipole accelerated RI-J (MARI-J):             
              Fast evaluation of the Coulomb potential for     
              electron densities using multipole accelerated   
              resolution of identity approximation             
              M. Sierka, A. Hogekamp and R. Ahlrichs           
              J. Chem. Phys. 118: 9136 (2003)                  
          RI-JK Method:                                     
              A fully direct RI-HF algorithm: Implementation,
              optimised auxiliary basis sets, demonstration of
              accuracy and efficiency                         
              F. Weigend                                      
              Phys. Chem. Chem. Phys. 4: 4285 (2002)           
          Two-component HF and DFT with spin-orbit coupling:  
              Self-consistent treatment of spin-orbit         
              interactions with efficient Hartree-Fock and    
              density functional methods                      
              M. K. Armbruster, F. Weigend, C. van Wüllen and 
              W. Klopper                                      
              Phys. Chem. Chem. Phys. 10: 1748 (2008)         
          Relativistic all-electron 2c calculations           
              An efficient implementation of two-component    
              relativistic exact-decoupling methods for large 
              molecules                                       
              D. Peng, N. Middendorf, F. Weigend, M. Reiher   
              J. Chem. Phys. 138, 184105 (2013)               
                                         


 


              +--------------------------------------------------+
              |      general information about current run       |
              +--------------------------------------------------+

 

 SCF run will be profiled !


 DENSITY CONVERGENCE CHECK SWITCHED ON !
 SCF CONVERGENCE IF RMS(delta[D]) <     0.1000000000E-06

 TPSS meta-GGA functional
 exchange:    LDA + TPSS
 correlation: LDA (PW) + TPSS
 A DFT calculation using the RI-J approximation will be carried out.
 Allocatable memory for RI due to $ricore (MB):       14000


              +--------------------------------------------------+
              | Atomic coordinate, charge and isotop information |
              +--------------------------------------------------+

                    atomic coordinates            atom    charge  isotop
         -2.08422109    1.99555174   -8.11450518    n      7.000     0
         -1.46615290   -0.29381273   -9.49317926    c      6.000     0
          1.48202944   -0.32705150   -9.46750317    c      6.000     0
          2.12752020    1.91935893   -8.02345572    n      7.000     0
          0.03150230    3.30585156   -7.32357580    c      6.000     0
         -2.13425235   -2.63918245   -8.23522296    n      7.000     0
         -0.04851702   -4.09667700   -7.64143889    c      6.000     0
          2.07985828   -2.71503133   -8.25867220    n      7.000     0
         -4.69068293   -3.60004734   -8.04959365    c      6.000     0
         -6.12137493   -2.57790600   -5.94552817    n      7.000     0
         -7.58344263   -0.26282406   -6.05944936    c      6.000     0
         -9.07762716   -0.27051108   -3.51458731    c      6.000     0
         -8.24077800   -2.57958351   -2.29949057    n      7.000     0
         -6.60899779   -3.97273156   -3.79098300    c      6.000     0
         -8.26799252    2.06268880   -2.30012022    n      7.000     0
         -6.60992167    3.42444076   -3.76563686    c      6.000     0
         -6.12224723    2.06348494   -5.92012496    n      7.000     0
         -9.33498802   -3.59004823   -0.00051457    c      6.000     0
         -8.23896821   -2.57822272    2.29696495    n      7.000     0
         -9.07714698   -0.27033931    3.51359803    c      6.000     0
         -7.58347796   -0.26356029    6.05844592    c      6.000     0
         -6.11823799   -2.57654691    5.94234493    n      7.000     0
         -6.60587615   -3.97098829    3.78755843    c      6.000     0
         -6.12457632    2.06432927    5.92185859    n      7.000     0
         -6.61266952    3.42662981    3.76823296    c      6.000     0
         -8.26851862    2.06412877    2.30082434    n      7.000     0
         -4.68976509   -3.59995871    8.04724000    c      6.000     0
         -2.13320998   -2.63973368    8.23407968    n      7.000     0
         -1.46572828   -0.29502197    9.49412903    c      6.000     0
          1.48247976   -0.32643885    9.46596267    c      6.000     0
          2.08064819   -2.71624170    8.26093798    n      7.000     0
         -0.04735276   -4.09832465    7.64420034    c      6.000     0
          2.12539993    1.91773244    8.01739442    n      7.000     0
          0.02804505    3.30331933    7.31989840    c      6.000     0
         -2.08624726    1.99540888    8.11865464    n      7.000     0
          4.60712321   -3.76402435    8.09501058    c      6.000     0
          6.08310685   -2.83023357    5.98572680    n      7.000     0
          7.56945279   -0.52932060    6.03870905    c      6.000     0
          9.09944367   -0.64098207    3.51883409    c      6.000     0
          8.11440994   -2.89522994    2.29359406    n      7.000     0
          6.47874104   -4.23856577    3.82271679    c      6.000     0
          8.49495732    1.73959967    2.30162728    n      7.000     0
          6.83592215    3.19452231    3.69443254    c      6.000     0
          6.14366350    1.80887515    5.79870098    n      7.000     0
         -0.08277057   -6.25096177    6.78964767    o      8.000     0
         -4.60120459    3.05905276    7.97360210    c      6.000     0
          0.03187174    5.35254930    6.23208095    o      8.000     0
          4.67031471    2.91467882    7.82205249    c      6.000     0
         -5.78927654   -6.08508237    3.31507645    o      8.000     0
         -9.36756746    3.06828180   -0.00023376    c      6.000     0
         -5.75502771    5.53692610    3.26376641    o      8.000     0
          9.15943737   -3.96373930   -0.00044333    c      6.000     0
          8.11404862   -2.89472784   -2.29421332    n      7.000     0
          9.09997411   -0.64146111   -3.52065314    c      6.000     0
          7.57064446   -0.53077645   -6.04070593    c      6.000     0
          6.08524715   -2.83221325   -5.98783800    n      7.000     0
          6.47934821   -4.23902157   -3.82366184    c      6.000     0
          6.14365443    1.80698712   -5.80148965    n      7.000     0
          6.83871308    3.19523172   -3.69966293    c      6.000     0
          8.49627616    1.74018738   -2.30515823    n      7.000     0
          4.60593042   -3.76419707   -8.09543028    c      6.000     0
          5.59093448   -6.33077265   -3.37235518    o      8.000     0
          9.66654084    2.65106410   -0.00128993    c      6.000     0
          6.14336341    5.34715754   -3.19736559    o      8.000     0
          4.67378481    2.91262487   -7.82771392    c      6.000     0
          5.59039912   -6.33051130    3.37215373    o      8.000     0
          6.13861642    5.34529994    3.18974508    o      8.000     0
         -5.79372420   -6.08755243   -3.31933721    o      8.000     0
         -4.59877969    3.06070608   -7.97044871    c      6.000     0
         -5.75001465    5.53317934   -3.25874295    o      8.000     0
         -0.08440840   -6.24859545   -6.78530092    o      8.000     0
          0.03750823    5.35624221   -6.23801204    o      8.000     0
         -1.51338642    6.31022453    0.00492784    n      0.000     0
          0.50967728    4.32748456    0.00163934    c      0.000     0
         -0.63733111    1.68570941    0.00059810    c      0.000     0
          1.39240067   -0.37959156    0.00306740    c      0.000     0
          0.24920385   -3.03569026    0.00701447    c      0.000     0
         -2.28783379   -0.23593741   11.39164783    h      1.000     0
          2.34050122   -0.23373512   11.34630215    h      1.000     0
          5.64291366    2.60691991    9.62344129    h      1.000     0
          4.51524416    4.93202250    7.42446639    h      1.000     0
          5.62128896   -3.35085954    9.85014512    h      1.000     0
          4.40185228   -5.80009787    7.84535678    h      1.000     0
        -11.13215120   -0.27383095    3.74459665    h      1.000     0
         -8.78760824   -0.25089478    7.73974584    h      1.000     0
         -4.40233397    5.08554555    7.65291595    h      1.000     0
         -5.58014679    2.70631383    9.76080341    h      1.000     0
         -4.55390323   -5.63747786    7.76284321    h      1.000     0
         -5.70085342   -3.18242107    9.80350498    h      1.000     0
         11.14481842   -0.80930659   -3.78866563    h      1.000     0
          8.75470452   -0.47863758   -7.73700253    h      1.000     0
          5.64717556    2.60083348   -9.62792864    h      1.000     0
          4.52189732    4.93078662   -7.43301929    h      1.000     0
          5.61834968   -3.35113790   -9.85161552    h      1.000     0
          4.39985030   -5.80027456   -7.84630448    h      1.000     0
          8.75325189   -0.47750186    7.73521957    h      1.000     0
         11.14430271   -0.80779197    3.78727063    h      1.000     0
          9.49100286    4.70504409   -0.00114858    h      1.000     0
         11.65871640    2.09813118   -0.00070562    h      1.000     0
          8.70526777   -5.97515567   -0.00083696    h      1.000     0
         11.21113873   -3.68783154   -0.00053725    h      1.000     0
         -8.78751149   -0.24692163   -7.74076705    h      1.000     0
        -11.13256354   -0.27266972   -3.74607120    h      1.000     0
        -11.39596132    2.66734636   -0.00029215    h      1.000     0
         -9.04099330    5.10341915   -0.00071205    h      1.000     0
        -11.36850738   -3.20912649    0.00018897    h      1.000     0
         -8.98391602   -5.62165632   -0.00016422    h      1.000     0
          2.33847259   -0.23836495  -11.34880925    h      1.000     0
         -2.28959653   -0.23204079  -11.39005196    h      1.000     0
         -4.39883627    5.08669054   -7.64736753    h      1.000     0
         -5.57735566    2.71020610   -9.75830651    h      1.000     0
         -4.55461963   -5.63754155   -7.76524770    h      1.000     0
         -5.70054577   -3.18250592   -9.80656596    h      1.000     0
         -2.68770891    6.13649180    1.55901272    h      0.000     0
         -0.74185924    8.15287323    0.00631981    h      0.000     0
         -2.68445669    6.13752283   -1.55146497    h      0.000     0
          1.73115128   -4.47498260    0.00824072    h      0.000     0
         -0.93424281   -3.33558848   -1.66422001    h      0.000     0
         -0.93259515   -3.33113798    1.68014020    h      0.000     0
          2.60727782   -0.13738366    1.66494680    h      0.000     0
          2.60777690   -0.14186628   -1.65908317    h      0.000     0
         -1.85164588    1.44926952    1.66715854    h      0.000     0
         -1.85002299    1.44847281   -1.66693479    h      0.000     0
          1.66661354    4.65522354    1.67470969    h      0.000     0
          1.66343937    4.65895008   -1.67297606    h      0.000     0
          0.43503083   11.82714051    0.00441157    cl     0.000     0
 
       center of nuclear mass  :    0.01939757    0.15350509   -0.00017300
       center of nuclear charge:    0.01036748   -0.39135115   -0.00061451

              +--------------------------------------------------+
              |               basis set information              |
              +--------------------------------------------------+

              we will work with the 1s 3p 5d 7f 9g ... basis set
              ...i.e. with spherical basis functions...

   type   atoms  prim   cont   basis
   ---------------------------------------------------------------------------
    n       25     50     30   cc-pVTZ   [4s3p2d1f|18s5p2d1f]
    c       40     50     30   cc-pVTZ   [4s3p2d1f|18s5p2d1f]
    o       12     50     30   cc-pVTZ   [4s3p2d1f|18s5p2d1f]
    h       48     16     14   cc-pVTZ   [3s2p1d|5s2p1d]
    cl       1    106     34   cc-pVTZ   [5s4p2d1f|41s16p2d1f]
   ---------------------------------------------------------------------------
   total:  126   4724   3016
   ---------------------------------------------------------------------------

   total number of primitive shells          :  146
   total number of contracted shells         : 1070
   total number of cartesian basis functions : 3454
   total number of SCF-basis functions       : 3016


 integral neglect threshold       :  0.97E-14
 integral storage threshold THIZE :  0.10E-04
 integral storage threshold THIME :         5

 RI-J AUXILIARY BASIS SET information:

              we will work with the 1s 3p 5d 7f 9g ... basis set
              ...i.e. with spherical basis functions...

   type   atoms  prim   cont   basis
   ---------------------------------------------------------------------------
    n       25     70     49   cc-pVTZ   [6s4p3d1f1g|12s5p4d2f1g]
    c       40     70     49   cc-pVTZ   [6s4p3d1f1g|12s5p4d2f1g]
    o       12     70     49   cc-pVTZ   [6s4p3d1f1g|12s5p4d2f1g]
    h       48     16     11   cc-pVTZ   [3s1p1d|5s2p1d]
    cl       1     77     51   cc-pVTZ   [8s4p3d1f1g|14s5p5d2f1g]
   ---------------------------------------------------------------------------
   total:  126   6235   4352
   ---------------------------------------------------------------------------

   total number of primitive shells          :  107
   total number of contracted shells         : 1412
   total number of cartesian basis functions : 5336
   total number of SCF-basis functions       : 4352


 symmetry group of the molecule :   c1 

 the group has the following generators :
   c1(z)

    1 symmetry operations found

 there are 1 real representations :   a   

 maximum number of shells which are related by symmetry :  1


    mo occupation :
   irrep   mo's   occupied
    a     3016      258
 
 number of basis functions   :         3016
 number of occupied orbitals :          258
 
  
           ------------------
           density functional
           ------------------
 Dummy atoms with grid-point found.
 DFT quadrature threshold dgrenze tightened by factor 1/10.

 TPSS meta-GGA functional
 exchange:    LDA + TPSS
 correlation: LDA (PW) + TPSS
 Dummy atoms with grid-point found.
 DFT quadrature threshold dgrenze tightened by factor 1/10.

 Dummy atoms with grid-point found.
 DFT quadrature threshold dgrenze tightened by factor 1/10.

 grinp -> nfun, dfgga, dfhybrid 
           5 F F
 iterations will be done with small grid
  
 spherical integration : Lebedev's spherical grid
 spherical gridsize    :           5
    i.e. gridpoints    :         590
 value for diffuse not defined
 radial integration    : Chebyshev 2nd kind (scaling 3)
 radial gridsize       :           8
 integration cells     :         126
 partition function    : becke
 partition sharpness   :           3
  
 found dummy atom(s) with basis: included in dft

 <rddim> : input of entry tasksize
           from data group '$pardft' failed !

               Default values taken

 <rddim> : input of entry memdiv
           from data group '$pardft' failed !

               Default values taken
  RIDFT: memory allocation for DFT gridpoints
  MEMORY is divided by 1 as DEFAULT
 Each node can hold at most  the            1 -th part
 of the gridpoints    

 biggest AO integral is expected to be    10.299856942
  
           ------------------------
               RI-J - INFORMATION
           ------------------------
 
 
 **************************************************
 *      MEMORY ALLOCATION FOR PARALLEL RI-DFT     *
 **************************************************
 
 
MEMORY FOR (MU NU/ ALPHA), SEQUENTIAL RUN              13849 MByte
 
            DIFFERENCE IN MEMORY NEED:       DIAG./SLAVE  
 
      TOTAL DIFFERENCE :                    514 MByte
 
      difference in xcore:                  152 MByte
      difference in fatmat:                 133 MByte
      getcor calls skipped by slaves:       230 MByte
 
 
           Integral memory available for diagonal.     13849 MByte
 
           Integral memory available for slave             0 MByte
 
         MEMORY FOR (MU NU/ ALPHA) ON DIAGONALIZER     13849 MByte
 
         MEMORY FOR (MU NU/ ALPHA) ON ONE SLAVE            0 MByte
 
         TOTAL MEMORY FOR (MU NU/ ALPHA),ALL NODES     13849 MByte
 
 Contributions to RI integral batches: 
  neglected integral batches:      342872
  direct contribution:             136081
  memory contribution:       94032
 Memory core needed for (P|Q) and Cholesky    145 MByte
 Memory core minimum needed except of (P|Q)    10 MByte
 Total minimum memory core needed (sum)       154 MByte
     number of direct tasks:         160
  
 ****************************************
 Memory allocated for RI-J 14003 MByte
 ****************************************
                                            

          ------------------------
          nuclear repulsion energy  :   13445.4493223    
          ------------------------

 
          -----------------
          -S integrals
          -----------------

 1e-integrals will be neglected if expon. factor < 0.967563E-15
 
          -----------------
          -T+V integrals
          -----------------

 1e-integrals will be neglected if expon. factor < 0.967563E-15
 Difference densities >>NOT<< switched on in parallel ridft!

 automatic virtual orbital shift switched on 
      shift if e(lumo)-e(homo) < 0.10000000    


 DIIS switched on: error vector is FDS-SDF
 Max. Iterations for DIIS is     :   4
 DIIS matrix (see manual) 
    Scaling factor of diagonals  :  1.200
    threshold for scaling factor :  0.000

 scf convergence criterion : increment of total energy < .1000000D-08
                  and increment of one-electron energy < .1000000D-05


 <geterg> : there is no data group $energy 

  MOs are in ASCII format !


 reading orbital data $scfmo  from file mos . 

 orbital characterization : expanded
 
 mo provided and orthogonalized by Cholesky decomposition

 DSCF restart information will be dumped onto file mos


 Starting SCF iterations


 ITERATION  ENERGY          1e-ENERGY        2e-ENERGY     RMS[dD(SAO)]   TOL
   1  -3597.5447448991    -31631.183674     14588.189607    0.000D+00 0.965D-14
                            Exc = -477.635188175     Coul =  15065.8247954    
                              N = 516.00176430    
                            current damping = 0.700
 
          max. resid. norm for Fia-block=  4.334D-01 for orbital    190a         
          max. resid. fock norm         =  1.061D+01 for orbital    817a         

 ITERATION  ENERGY          1e-ENERGY        2e-ENERGY     RMS[dD(SAO)]   TOL
   2  -3609.8952859285    -31701.438021     14646.093413    0.170D-02 0.965D-14
                            Exc = -477.507196809     Coul =  15123.6006094    
                              N = 516.00145524    
                            current damping = 0.650
 
          Norm of current diis error:  6.9339    
          max. resid. norm for Fia-block=  1.585D-01 for orbital      1a         
          max. resid. fock norm         =  3.974D-01 for orbital   3000a         

 ITERATION  ENERGY          1e-ENERGY        2e-ENERGY     RMS[dD(SAO)]   TOL
   3  -3611.6801034924    -31724.903860     14667.774435    0.856D-03 0.965D-14
                            Exc = -479.729053573     Coul =  15147.5034883    
                              N = 516.00134086    
                            current damping = 0.550
 
          Norm of current diis error:  3.3285    
          max. resid. norm for Fia-block=  6.233D-02 for orbital      1a         
          max. resid. fock norm         =  8.385D-02 for orbital    543a         

 ITERATION  ENERGY          1e-ENERGY        2e-ENERGY     RMS[dD(SAO)]   TOL
   4  -3612.1844881018    -31735.011731     14677.377921    0.625D-03 0.965D-14
                            Exc = -479.382482950     Coul =  15156.7604035    
                              N = 516.00129621    
                            current damping = 0.450
 
          Norm of current diis error:  1.5078    
          max. resid. norm for Fia-block=  3.319D-02 for orbital     90a         
          max. resid. fock norm         =  7.124D-02 for orbital   2970a         

 ITERATION  ENERGY          1e-ENERGY        2e-ENERGY     RMS[dD(SAO)]   TOL
   5  -3612.2488105021    -31732.038135     14674.340002    0.331D-03 0.965D-14
                            Exc = -480.012869157     Coul =  15154.3528710    
                              N = 516.00133058    
                            current damping = 0.500
 
          Norm of current diis error:  1.1012    
          max. resid. norm for Fia-block=  1.359D-02 for orbital    228a         
          max. resid. fock norm         =  1.521D-02 for orbital    228a         
          mo-orthogonalization: Cholesky decomposition

 ITERATION  ENERGY          1e-ENERGY        2e-ENERGY     RMS[dD(SAO)]   TOL
   6  -3612.3058081679    -31738.644165     14680.889034    0.164D-03 0.965D-14
                            Exc = -480.035398445     Coul =  15160.9244326    
                              N = 516.00133107    
                            current damping = 0.550
 
          Norm of current diis error: 0.18493    
          max. resid. norm for Fia-block=  3.168D-03 for orbital    223a         
          max. resid. fock norm         =  5.567D-03 for orbital   1554a         

 ITERATION  ENERGY          1e-ENERGY        2e-ENERGY     RMS[dD(SAO)]   TOL
   7  -3612.3073783599    -31737.466919     14679.710218    0.559D-04 0.965D-14
                            Exc = -479.947729480     Coul =  15159.6579474    
                              N = 516.00133283    
                            current damping = 0.600
 
          Norm of current diis error: 0.84189E-01
          max. resid. norm for Fia-block=  1.328D-03 for orbital     82a         
          max. resid. fock norm         =  2.229D-03 for orbital   2994a         

 ITERATION  ENERGY          1e-ENERGY        2e-ENERGY     RMS[dD(SAO)]   TOL
   8  -3612.3076680676    -31737.755458     14679.998468    0.150D-04 0.965D-14
                            Exc = -479.970779581     Coul =  15159.9692474    
                              N = 516.00133527    
                            current damping = 0.650
 
          Norm of current diis error: 0.22740E-01
          max. resid. norm for Fia-block=  5.772D-04 for orbital    245a         
          max. resid. fock norm         =  1.208D-03 for orbital   2970a         

 ITERATION  ENERGY          1e-ENERGY        2e-ENERGY     RMS[dD(SAO)]   TOL
   9  -3612.3076860430    -31737.958053     14680.201045    0.536D-05 0.965D-14
                            Exc = -479.987723947     Coul =  15160.1887687    
                              N = 516.00133620    
                            current damping = 0.500
 
          Norm of current diis error: 0.16273E-01
          max. resid. norm for Fia-block=  4.293D-04 for orbital    245a         
          max. resid. fock norm         =  5.990D-04 for orbital   2861a         

 ITERATION  ENERGY          1e-ENERGY        2e-ENERGY     RMS[dD(SAO)]   TOL
  10  -3612.3076961962    -31737.985107     14680.228089    0.380D-05 0.965D-14
                            Exc = -479.986230299     Coul =  15160.2143192    
                              N = 516.00133629    
                            current damping = 0.350
 
          Norm of current diis error: 0.86490E-02
          max. resid. norm for Fia-block=  1.626D-04 for orbital    245a         
          max. resid. fock norm         =  2.962D-04 for orbital   2970a         
          mo-orthogonalization: Cholesky decomposition

 ITERATION  ENERGY          1e-ENERGY        2e-ENERGY     RMS[dD(SAO)]   TOL
  11  -3612.3076993409    -31737.901288     14680.144267    0.179D-05 0.965D-14
                            Exc = -479.983505734     Coul =  15160.1277724    
                              N = 516.00133657    
                            current damping = 0.400
 
          Norm of current diis error: 0.29591E-02
          max. resid. norm for Fia-block=  4.628D-05 for orbital    234a         
          max. resid. fock norm         =  6.862D-05 for orbital   3012a         

 ITERATION  ENERGY          1e-ENERGY        2e-ENERGY     RMS[dD(SAO)]   TOL
  12  -3612.3076995175    -31737.944799     14680.187777    0.607D-06 0.965D-14
                            Exc = -479.984506957     Coul =  15160.1722844    
                              N = 516.00133659    
                            current damping = 0.450
 
          Norm of current diis error: 0.21069E-02
          max. resid. norm for Fia-block=  3.396D-05 for orbital    239a         
          max. resid. fock norm         =  5.365D-05 for orbital   2960a         

 ITERATION  ENERGY          1e-ENERGY        2e-ENERGY     RMS[dD(SAO)]   TOL
  13  -3612.3076996868    -31737.942711     14680.185689    0.283D-06 0.965D-14
                            Exc = -479.985277064     Coul =  15160.1709666    
                              N = 516.00133661    
                            current damping = 0.500
 
          Norm of current diis error: 0.66810E-03
          max. resid. norm for Fia-block=  1.186D-05 for orbital    228a         
          max. resid. fock norm         =  1.482D-05 for orbital    209a         

 ITERATION  ENERGY          1e-ENERGY        2e-ENERGY     RMS[dD(SAO)]   TOL
  14  -3612.3076997041    -31737.938059     14680.181037    0.136D-06 0.965D-14
                            Exc = -479.984804367     Coul =  15160.1658411    
                              N = 516.00133661    
                            current damping = 0.350
 
          Norm of current diis error: 0.28316E-03
          max. resid. norm for Fia-block=  3.056D-06 for orbital    239a         
          max. resid. fock norm         =  5.728D-06 for orbital    204a         

 DENSITY CONVERGED !


 ITERATION  ENERGY          1e-ENERGY        2e-ENERGY     RMS[dD(SAO)]   TOL
  15  -3612.3076997067    -31737.937050     14680.180028    0.353D-07 0.965D-14
                            Exc = -479.984822141     Coul =  15160.1648499    
                              N = 516.00133661    
                            current damping = 0.200
 
          Norm of current diis error: 0.84179E-04
          max. resid. norm for Fia-block=  1.874D-06 for orbital    245a         
          max. resid. fock norm         =  3.366D-06 for orbital   2871a         
          mo-orthogonalization: Cholesky decomposition

 DENSITY CONVERGED !


 ITERATION  ENERGY          1e-ENERGY        2e-ENERGY     RMS[dD(SAO)]   TOL
  16  -3612.3076997061    -31737.937492     14680.180470    0.215D-07 0.965D-14
                            Exc = -479.984834824     Coul =  15160.1653050    
                              N = 516.00133661    
                            current damping = 0.250
 
          Norm of current diis error: 0.11000E-03
          max. resid. norm for Fia-block=  1.139D-06 for orbital    245a         
          max. resid. fock norm         =  1.769D-06 for orbital   2871a         

 DENSITY CONVERGED !


 ITERATION  ENERGY          1e-ENERGY        2e-ENERGY     RMS[dD(SAO)]   TOL
  17  -3612.3076997068    -31737.937847     14680.180825    0.107D-07 0.965D-14
                            Exc = -479.984841774     Coul =  15160.1656672    
                              N = 516.00133661    
                            current damping = 0.100
 
          Norm of current diis error: 0.34000E-04
          max. resid. norm for Fia-block=  4.590D-07 for orbital    238a         
          max. resid. fock norm         =  6.834D-07 for orbital    238a         

 DENSITY CONVERGED !


 ITERATION  ENERGY          1e-ENERGY        2e-ENERGY     RMS[dD(SAO)]   TOL
  18  -3612.3076997070    -31737.937570     14680.180548    0.649D-08 0.965D-14
                            Exc = -479.984845982     Coul =  15160.1653940    
                              N = 516.00133661    
                            current damping = 0.150
 
          Norm of current diis error: 0.20881E-04
          max. resid. norm for Fia-block=  3.191D-07 for orbital    239a         
          max. resid. fock norm         =  4.890D-07 for orbital    231a         

 DENSITY CONVERGED !


 ITERATION  ENERGY          1e-ENERGY        2e-ENERGY     RMS[dD(SAO)]   TOL
  19  -3612.3076997070    -31737.937637     14680.180615    0.326D-08 0.965D-14
                            Exc = -479.984840170     Coul =  15160.1654549    
                              N = 516.00133661    
                            current damping = 0.200
 
          Norm of current diis error: 0.84766E-05
          max. resid. norm for Fia-block=  1.306D-07 for orbital    228a         
          max. resid. fock norm         =  2.114D-07 for orbital   2812a         

 ENERGY & DENSITY CONVERGED !


 ITERATION  ENERGY          1e-ENERGY        2e-ENERGY     RMS[dD(SAO)]   TOL
  20  -3612.3062366864    -31737.937625     14680.182066    0.131D-08 0.965D-14
                            Exc = -479.983378036     Coul =  15160.1654443    
                              N = 516.00021657    
                            current damping = 0.250
 
          Norm of current diis error: 0.42072E-05
          max. resid. norm for Fia-block=  5.598D-08 for orbital    245a         
          max. resid. fock norm         =  9.369D-08 for orbital   2840a         

 End of SCF iterations

   convergence criteria satisfied after   20 iterations


                  ------------------------------------------ 
                 |  total energy      =  -3612.30623668636  |
                  ------------------------------------------ 
                 :  kinetic energy    =   3592.37252665775  :
                 :  potential energy  =  -7204.67876334411  :
                 :  virial theorem    =      1.99448172200  :
                 :  wavefunction norm =      1.00000000000  :
                  .......................................... 


 <geterg> : there is no data group $energy 


 <skperg> : $end is missing 


 orbitals $scfmo  will be written to file mos

    irrep                254a        255a        256a        257a        258a   
 eigenvalues H         -0.21109    -0.20873    -0.20501    -0.20449    -0.19635
            eV          -5.7441     -5.6798     -5.5785     -5.5645     -5.3431
 occupation              2.0000      2.0000      2.0000      2.0000      2.0000 

    irrep                259a        260a        261a        262a        263a   
 eigenvalues H         -0.01520    -0.01020    -0.00992     0.00072     0.00079
            eV          -0.4136     -0.2777     -0.2701      0.0196      0.0214
 
 
 ! grave: sending quit signal to master process
 
 
 
 
 ==============================================================================
                           electrostatic moments
 ==============================================================================

 reference point for electrostatic moments:    0.00000   0.00000   0.00000

 
              nuc           elec       ->  total
 ------------------------------------------------------------------------------
                          charge      
 ------------------------------------------------------------------------------
         516.000000    -516.000000      -0.000000
 
 ------------------------------------------------------------------------------
                       dipole moment  
 ------------------------------------------------------------------------------
   x       5.349617      -5.363894      -0.014276
   y    -201.937191     201.902190      -0.035001
   z      -0.317087       0.316889      -0.000198
 
   | dipole moment | =     0.0378 a.u. =     0.0961 debye 
 
 ------------------------------------------------------------------------------
                     quadrupole moment
 ------------------------------------------------------------------------------
  xx   19115.790973  -19324.764263    -208.973290
  yy    6474.613264   -6861.030196    -386.416932
  zz   18498.048910  -18706.727428    -208.678518
  xy    -246.000172     243.059748      -2.940424
  xz      -2.439953       2.451917       0.011964
  yz      -0.488247       0.504519       0.016272
 
     1/3  trace=    -268.022913
     anisotropy=     177.664228
 
 ==============================================================================
 

    ridft profiling
  --------------------------------------------------------------------
             module   cpu total (s)       %  wall total (s)       %

               RIDFT          7836.8  100.00          7874.4  100.00
         Ridft_b_scf           260.2    3.32           260.0    3.30
        b_scf_prelim             0.0    0.00             0.0    0.00
        b_scf_molinp             0.0    0.00             0.0    0.00
         b_scf_init0             0.0    0.00             0.0    0.00
        b_scf_auxbas             0.0    0.00             0.0    0.00
      b_scf_symmetry             0.0    0.00             0.0    0.00
         b_scf_cosmo             0.0    0.00             0.0    0.00
        b_scf_params             4.2    0.05             4.2    0.05
          b_scf_ri-j           187.8    2.40           187.7    2.38
    b_scf_ri-j_auxpq           187.7    2.40           187.6    2.38
     ri-j_auxpq_chol            11.7    0.15            11.6    0.15
         b_scf_1elec             4.5    0.06             4.5    0.06
       b_scf_moinput            63.7    0.81            63.6    0.81
     moinput_orthmos            62.6    0.80            62.5    0.79
    b_scf_dft-dstmax             0.0    0.00             0.0    0.00
           Ridft_scf          7575.3   96.66          7611.2   96.66
          Scf_b_loop             0.0    0.00             0.0    0.00
                noga             0.0    0.00             0.0    0.00
            Scf_loop          7569.1   96.58          7604.0   96.57
     scf_loop_mkdmat            23.5    0.30            23.5    0.30
       scf_loop_ri-j           889.5   11.35           913.2   11.60
      parlp1.bc.dens             1.6    0.02             1.6    0.02
        parlp1.gs.gp             5.4    0.07             5.4    0.07
        parlp2.bc.gq             0.0    0.00             0.0    0.00
        scf_loop_dft          5857.6   74.75          5853.7   74.34
      pardft.bc.dens             0.0    0.00             0.0    0.00
        dft_grid_con            28.6    0.36            28.7    0.36
          dft_xcmrhf          5773.4   73.67          5769.3   73.27
          dft_getval            91.6    1.17            91.6    1.16
          funct2 dst             1.9    0.02             1.8    0.02
      funct2 f2loop1            12.6    0.16            12.7    0.16
      funct2 f2loop2            50.2    0.64            50.2    0.64
          funct2 s+c            24.8    0.32            24.8    0.32
        funct2 cmf_2            22.0    0.28            22.1    0.28
          dft_mkdens          3407.4   43.48          3405.1   43.24
        dft_mgga-fun             3.0    0.04             2.9    0.04
          dft_mkfock          2269.7   28.96          2268.1   28.80
     pardft.red.fock           532.1    6.79           531.8    6.75
     scf_loop_energy             0.1    0.00             0.5    0.01
     scf_loop_mkfock             0.2    0.00             0.2    0.00
       scf_loop_diis           416.0    5.31           419.8    5.33
       scf_loop_diag           215.4    2.75           215.2    2.73
         diag_tritrn            73.0    0.93            73.0    0.93
          diag_rdiag           141.8    1.81           141.7    1.80
     scf_loop_modump           106.6    1.36           117.6    1.49
      scf_loop_ortho            56.4    0.72            56.4    0.72
          Scf_a_loop             6.2    0.08             7.2    0.09
         Ridft_a_scf             1.4    0.02             3.2    0.04
         a_scf_fanal             1.0    0.01             2.7    0.03
 


    ------------------------------------------------------------------------
         total  cpu-time :  2 hours 10 minutes and 44 seconds
         total wall-time :  2 hours 11 minutes and 22 seconds
    ------------------------------------------------------------------------


   ****  ridft : all done  ****


    2017-11-08 00:16:26.623 

