 this is node-proc. number 0 running on node c-13-13.gp.local
 the total number of node-proc. spawned is  33

 dscfserver (c-13-13.gp.local) : TURBOMOLE V7.2 ( 21471 ) 7 Nov 2017 at 16:15:16
 Copyright (C) 2017 TURBOMOLE GmbH, Karlsruhe


    2018-02-15 11:33:10.999 

 
    0:00:12 ---- Start global counter...
    0:09:07 ---- ... finished.
 
    0:09:29 ---- Start global counter...
    0:15:23 ---- ... finished.
 
    0:15:45 ---- Start global counter...
    0:20:21 ---- ... finished.
 
    0:20:50 ---- Start global counter...
    0:24:58 ---- ... finished.
 
    0:25:20 ---- Start global counter...
    0:28:55 ---- ... finished.
 
    0:29:21 ---- Start global counter...
    0:32:26 ---- ... finished.
 
    0:32:48 ---- Start global counter...
    0:35:32 ---- ... finished.
 
    0:35:54 ---- Start global counter...
    0:38:20 ---- ... finished.
 
    0:38:41 ---- ByeBye Tag received


 ! Total wall-clock time in seconds  :     2321.5
 ! Time (sec) spent in global counter:     2124.1
 ! So-called SERIAL wall-clock time  :      197.4

  *** Regular termination of server ***
 total turnaround time of dscfserver  2321.71 sec
 cpu elapsed by dscfserver process    2123.88 sec 

   ***  dscf server : all done  ***


    2018-02-15 12:11:52.711 

