           Doing BLAS/Lapack in the master proc. with  8 CPUs.
           SMPCPUS    set: Shared-memory Parallelization with   8 CPUs.

           SMP Parallelization Reference:
           C. van Wullen, J. Comput. Chem. 32 (2011) 1195--1201
 operating system is UNIX !

 ridft (c-13-11.gp.local) : TURBOMOLE V7.2 ( 21454 ) 4 Oct 2017 at 12:48:15
 Copyright (C) 2017 TURBOMOLE GmbH, Karlsruhe


    2018-04-28 21:07:34.436 



                                  r i d f t

                        DFT program with RI approximation 
                                for coulomb part 




                                                 
                                 References:     
                                                 
          TURBOMOLE:                             
              R. Ahlrichs, M. Baer, M. Haeser, H. Horn, and
              C. Koelmel
              Electronic structure calculations on workstation
              computers: the program system TURBOMOLE
              Chem. Phys. Lett. 162: 165 (1989)
          Density Functional:                              
              O. Treutler and R. Ahlrichs                      
              Efficient Molecular Numerical Integration Schemes
              J. Chem. Phys. 102: 346 (1995)                   
          Parallel Version:                                
              Performance of parallel TURBOMOLE for Density    
              Functional Calculations                          
              M. v. Arnim and R. Ahlrichs                      
              J. Comp. Chem. 19: 1746 (1998)                   
          RI-J Method:                                     
              Auxiliary Basis Sets to approximate Coulomb      
              Potentials                                       
              Chem. Phys. Lett. 240: 283 (1995)                
              K. Eichkorn, O. Treutler, H. Oehm, M. Haeser     
              and R. Ahlrichs                                  
              Chem. Phys. Lett. 242: 652 (1995)                
                                                           
              Auxiliary Basis Sets for Main Row Atoms and their
              Use to approximate Coulomb Potentials            
              K. Eichkorn, F. Weigend, O. Treutler and         
              R. Ahlrichs                                      
              Theo. Chem. Acc. 97: 119 (1997)                   
                                                           
              Accurate Coulomb-fitting basis sets for H to Rn 
              F. Weigend                                        
              Phys. Chem. Chem. Phys. 8: 1057 (2006)            
                                                           
          Multipole accelerated RI-J (MARI-J):             
              Fast evaluation of the Coulomb potential for     
              electron densities using multipole accelerated   
              resolution of identity approximation             
              M. Sierka, A. Hogekamp and R. Ahlrichs           
              J. Chem. Phys. 118: 9136 (2003)                  
          RI-JK Method:                                     
              A fully direct RI-HF algorithm: Implementation,
              optimised auxiliary basis sets, demonstration of
              accuracy and efficiency                         
              F. Weigend                                      
              Phys. Chem. Chem. Phys. 4: 4285 (2002)           
          Two-component HF and DFT with spin-orbit coupling:  
              Self-consistent treatment of spin-orbit         
              interactions with efficient Hartree-Fock and    
              density functional methods                      
              M. K. Armbruster, F. Weigend, C. van Wüllen and 
              W. Klopper                                      
              Phys. Chem. Chem. Phys. 10: 1748 (2008)         
          Relativistic all-electron 2c calculations           
              An efficient implementation of two-component    
              relativistic exact-decoupling methods for large 
              molecules                                       
              D. Peng, N. Middendorf, F. Weigend, M. Reiher   
              J. Chem. Phys. 138, 184105 (2013)               
                                         




              +--------------------------------------------------+
              |      general information about current run       |
              +--------------------------------------------------+

 

 DENSITY CONVERGENCE CHECK SWITCHED ON !
 SCF CONVERGENCE IF RMS(delta[D]) <     0.1000000000E-06

 TPSS meta-GGA functional
 exchange:    LDA + TPSS
 correlation: LDA (PW) + TPSS
 A DFT calculation using the RI-J approximation will be carried out.
 Allocatable memory for RI due to $ricore (MB):                  5000


              +--------------------------------------------------+
              | Atomic coordinate, charge and isotop information |
              +--------------------------------------------------+

                    atomic coordinates            atom    charge  isotop
          1.43571787    1.94882743    0.70632746    c      6.000     0
          2.71178772    3.54449179    0.70808910    h      1.000     0
          2.39356073   -0.50524160    0.79609074    c      6.000     0
          4.41235172   -0.81103302    0.86820130    h      1.000     0
          0.74704756   -2.56245194    0.80295429    c      6.000     0
          1.49035507   -4.46446398    0.87501027    h      1.000     0
         -1.85609966   -2.16686280    0.72049633    c      6.000     0
         -3.13251646   -3.76270966    0.72777322    h      1.000     0
         -2.81445627    0.28563171    0.63791927    c      6.000     0
         -4.83381937    0.59290250    0.58150464    h      1.000     0
         -1.16931558    2.34388630    0.63094881    c      6.000     0
         -1.91195236    4.24641663    0.57517446    h      1.000     0
 
       center of nuclear mass  :   -0.21059410   -0.10934506    0.71631874
       center of nuclear charge:   -0.21059680   -0.10932527    0.71676606

              +--------------------------------------------------+
              |               basis set information              |
              +--------------------------------------------------+

              we will work with the 1s 3p 5d 7f 9g ... basis set
              ...i.e. with spherical basis functions...

   type   atoms  prim   cont   basis
   ---------------------------------------------------------------------------
    c        6     50     30   cc-pVTZ   [4s3p2d1f|18s5p2d1f]
    h        6     16     14   cc-pVTZ   [3s2p1d|5s2p1d]
   ---------------------------------------------------------------------------
   total:   12    396    264
   ---------------------------------------------------------------------------

   total number of primitive shells          :   34
   total number of contracted shells         :   96
   total number of cartesian basis functions :  300
   total number of SCF-basis functions       :  264


 integral neglect threshold       :  0.11E-12
 integral storage threshold THIZE :  0.10E-04
 integral storage threshold THIME :         5

 RI-J AUXILIARY BASIS SET information:

              we will work with the 1s 3p 5d 7f 9g ... basis set
              ...i.e. with spherical basis functions...

   type   atoms  prim   cont   basis
   ---------------------------------------------------------------------------
    c        6     70     49   cc-pVTZ   [6s4p3d1f1g|12s5p4d2f1g]
    h        6     16     11   cc-pVTZ   [3s1p1d|5s2p1d]
   ---------------------------------------------------------------------------
   total:   12    516    360
   ---------------------------------------------------------------------------

   total number of primitive shells          :   32
   total number of contracted shells         :  120
   total number of cartesian basis functions :  438
   total number of SCF-basis functions       :  360


 symmetry group of the molecule :   c1 

 the group has the following generators :
   c1(z)

    1 symmetry operations found

 there are 1 real representations :   a   

 maximum number of shells which are related by symmetry :  1


    mo occupation :
   irrep   mo's   occupied
    a      264       21
 
 number of basis functions   :                    264
 number of occupied orbitals :                     21
 
  
           ------------------
           density functional
           ------------------
 TPSS meta-GGA functional
 exchange:    LDA + TPSS
 correlation: LDA (PW) + TPSS

 iterations will be done with small grid
  
 spherical integration : Lebedev's spherical grid
 spherical gridsize    :                     5
    i.e. gridpoints    :                   590
 value for diffuse not defined
 radial integration    : Chebyshev 2nd kind (scaling 3)
 radial gridsize       :                     8
 integration cells     :                    12
 partition function    : becke
 partition sharpness   :                     3
  

 biggest AO integral is expected to be     3.593180334
  
           ------------------------
               RI-J - INFORMATION
           ------------------------
 Contributions to RI integral batches: 
  neglected integral batches:                   143
  direct contribution:                            0
  memory contribution:                  4513
 Memory core needed for (P|Q) and Cholesky      1 MByte
 Memory core minimum needed except of (P|Q)     1 MByte
 Total minimum memory core needed (sum)         2 MByte
  
 ****************************************
 Memory allocated for RI-J   148 MByte
 ****************************************
                                            

          ------------------------
          nuclear repulsion energy  :   203.621439855    
          ------------------------


         -----------------
         -S,T+V- integrals
         -----------------

 1e-integrals will be neglected if expon. factor < 0.111399E-13
 Difference densities >>NOT<< switched on in parallel ridft!

 DIIS switched on: error vector is FDS-SDF
 Max. Iterations for DIIS is     :   4
 DIIS matrix (see manual) 
    Scaling factor of diagonals  :  1.200
    threshold for scaling factor :  0.000

 scf convergence criterion : increment of total energy < .1000000D-08
                  and increment of one-electron energy < .1000000D-05

  MOs are in ASCII format !


 automatic virtual orbital shift switched on 
      shift if e(lumo)-e(homo) < 0.10000000    


 reading orbital data $scfmo  from file mos
 orbital characterization : expanded
 mo provided and orthogonalized by Cholesky decomposition

 DSCF restart information will be dumped onto file mos


 Starting SCF iterations

          Overall gridpoints after grid construction =         58190

 ITERATION  ENERGY          1e-ENERGY        2e-ENERGY     RMS[dD(SAO)]   TOL
   1  -231.61026248261    -704.43049033     269.19878799    0.000D+00 0.111D-12
                            Exc = -33.8330836788     Coul =  303.031871673    
                              N = 41.999974406    
                            current damping = 0.700
 
          max. resid. norm for Fia-block=  2.620D-01 for orbital     12a         
          max. resid. fock norm         =  5.315D+00 for orbital    251a         

 ITERATION  ENERGY          1e-ENERGY        2e-ENERGY     RMS[dD(SAO)]   TOL
   2  -232.20689533824    -711.36389385     275.53555866    0.332D-02 0.111D-12
                            Exc = -34.4803274834     Coul =  310.015886143    
                              N = 41.999973252    
                            current damping = 0.650
 
          Norm of current diis error:  2.0273    
          max. resid. norm for Fia-block=  1.113D-01 for orbital      4a         
          max. resid. fock norm         =  1.438D-01 for orbital    213a         

 ITERATION  ENERGY          1e-ENERGY        2e-ENERGY     RMS[dD(SAO)]   TOL
   3  -232.32782402399    -712.76233209     276.81306821    0.189D-02 0.111D-12
                            Exc = -34.6738739247     Coul =  311.486942134    
                              N = 41.999975005    
                            current damping = 0.550
 
          Norm of current diis error: 0.99610    
          max. resid. norm for Fia-block=  5.507D-02 for orbital      7a         
          max. resid. fock norm         =  6.221D-02 for orbital      7a         

 ITERATION  ENERGY          1e-ENERGY        2e-ENERGY     RMS[dD(SAO)]   TOL
   4  -232.36362628962    -714.10297520     278.11790906    0.997D-03 0.111D-12
                            Exc = -34.8112312715     Coul =  312.929140330    
                              N = 41.999974414    
                            current damping = 0.450
 
          Norm of current diis error: 0.36700    
          max. resid. norm for Fia-block=  2.102D-02 for orbital      7a         
          max. resid. fock norm         =  2.308D-02 for orbital      7a         

 ITERATION  ENERGY          1e-ENERGY        2e-ENERGY     RMS[dD(SAO)]   TOL
   5  -232.36940704735    -714.41574529     278.42489839    0.445D-03 0.111D-12
                            Exc = -34.8580751423     Coul =  313.282973530    
                              N = 41.999974795    
                            current damping = 0.300
 
          Norm of current diis error: 0.13079    
          max. resid. norm for Fia-block=  7.343D-03 for orbital      7a         
          max. resid. fock norm         =  8.184D-03 for orbital      7a         
          mo-orthogonalization: Cholesky decomposition

 ITERATION  ENERGY          1e-ENERGY        2e-ENERGY     RMS[dD(SAO)]   TOL
   6  -232.37017627676    -714.69176050     278.70014437    0.196D-03 0.111D-12
                            Exc = -34.8838408409     Coul =  313.583985210    
                              N = 41.999974677    
                            current damping = 0.150
 
          Norm of current diis error: 0.30073E-01
          max. resid. norm for Fia-block=  1.582D-03 for orbital     12a         
          max. resid. fock norm         =  2.598D-03 for orbital     67a         

 ITERATION  ENERGY          1e-ENERGY        2e-ENERGY     RMS[dD(SAO)]   TOL
   7  -232.37021072975    -714.62975757     278.63810699    0.615D-04 0.111D-12
                            Exc = -34.8828483081     Coul =  313.520955293    
                              N = 41.999974860    
                            current damping = 0.200
 
          Norm of current diis error: 0.17819E-01
          max. resid. norm for Fia-block=  5.529D-04 for orbital     12a         
          max. resid. fock norm         =  7.357D-04 for orbital     12a         

 ITERATION  ENERGY          1e-ENERGY        2e-ENERGY     RMS[dD(SAO)]   TOL
   8  -232.37022112938    -714.67645794     278.68479696    0.178D-04 0.111D-12
                            Exc = -34.8858310471     Coul =  313.570628002    
                              N = 41.999974805    
                            current damping = 0.250
 
          Norm of current diis error: 0.21527E-02
          max. resid. norm for Fia-block=  1.561D-04 for orbital     21a         
          max. resid. fock norm         =  3.665D-04 for orbital      4a         

 ITERATION  ENERGY          1e-ENERGY        2e-ENERGY     RMS[dD(SAO)]   TOL
   9  -232.37022082175    -714.67776986     278.68610919    0.554D-05 0.111D-12
                            Exc = -34.8859400586     Coul =  313.572049246    
                              N = 41.999974805    
                            current damping = 0.300
 
          Norm of current diis error: 0.34732E-02
          max. resid. norm for Fia-block=  6.982D-05 for orbital     21a         
          max. resid. fock norm         =  1.521D-04 for orbital      4a         

 ITERATION  ENERGY          1e-ENERGY        2e-ENERGY     RMS[dD(SAO)]   TOL
  10  -232.37022128069    -714.67737089     278.68570975    0.232D-05 0.111D-12
                            Exc = -34.8859230418     Coul =  313.571632792    
                              N = 41.999974806    
                            current damping = 0.350
 
          Norm of current diis error: 0.10846E-02
          max. resid. norm for Fia-block=  2.974D-05 for orbital     21a         
          max. resid. fock norm         =  6.463D-05 for orbital      4a         
          mo-orthogonalization: Cholesky decomposition

 ITERATION  ENERGY          1e-ENERGY        2e-ENERGY     RMS[dD(SAO)]   TOL
  11  -232.37022132976    -714.67716263     278.68550145    0.946D-06 0.111D-12
                            Exc = -34.8859159145     Coul =  313.571417363    
                              N = 41.999974806    
                            current damping = 0.200
 
          Norm of current diis error: 0.10718E-03
          max. resid. norm for Fia-block=  3.039D-06 for orbital     21a         
          max. resid. fock norm         =  6.940D-06 for orbital      4a         

 ITERATION  ENERGY          1e-ENERGY        2e-ENERGY     RMS[dD(SAO)]   TOL
  12  -232.37022133024    -714.67721194     278.68555075    0.117D-06 0.111D-12
                            Exc = -34.8859170492     Coul =  313.571467800    
                              N = 41.999974806    
                            current damping = 0.250
 
          Norm of current diis error: 0.19376E-04
          max. resid. norm for Fia-block=  9.617D-07 for orbital     16a         
          max. resid. fock norm         =  1.472D-06 for orbital    213a         

 DENSITY CONVERGED !


 ITERATION  ENERGY          1e-ENERGY        2e-ENERGY     RMS[dD(SAO)]   TOL
  13  -232.37022133025    -714.67713850     278.68547731    0.262D-07 0.111D-12
                            Exc = -34.8859129131     Coul =  313.571390227    
                              N = 41.999974807    
                            current damping = 0.300
 
          Norm of current diis error: 0.11520E-04
          max. resid. norm for Fia-block=  3.438D-07 for orbital     16a         
          max. resid. fock norm         =  4.446D-07 for orbital     16a         

 DENSITY CONVERGED !


 ITERATION  ENERGY          1e-ENERGY        2e-ENERGY     RMS[dD(SAO)]   TOL
  14  -232.37022133025    -714.67716633     278.68550514    0.103D-07 0.111D-12
                            Exc = -34.8859147442     Coul =  313.571419884    
                              N = 41.999974807    
                            current damping = 0.350
 
          Norm of current diis error: 0.16380E-05
          max. resid. norm for Fia-block=  6.331D-08 for orbital     14a         
          max. resid. fock norm         =  1.094D-07 for orbital      4a         

 ENERGY & DENSITY CONVERGED !

          Overall gridpoints after grid construction =        188429

 ITERATION  ENERGY          1e-ENERGY        2e-ENERGY     RMS[dD(SAO)]   TOL
  15  -232.37008014296    -714.67716858     278.68564859    0.174D-08 0.111D-12
                            Exc = -34.8857736324     Coul =  313.571422218    
                              N = 41.999999677    
                            current damping = 0.200
 
          Norm of current diis error: 0.82474E-06
          max. resid. norm for Fia-block=  2.355D-08 for orbital     14a         
          max. resid. fock norm         =  5.905D-08 for orbital      4a         

 End of SCF iterations

   convergence criteria satisfied after    15 iterations


                  ------------------------------------------ 
                 |  total energy      =   -232.37008014296  |
                  ------------------------------------------ 
                 :  kinetic energy    =    231.04219771593  :
                 :  potential energy  =   -463.41227785889  :
                 :  virial theorem    =      1.99428548449  :
                 :  wavefunction norm =      1.00000000000  :
                  .......................................... 


 <geterg> : there is no data group $energy 


 <skperg> : $end is missing 


 orbitals $scfmo  will be written to file mos

    irrep                 17a         18a         19a         20a         21a   
 eigenvalues H         -0.33244    -0.30548    -0.30546    -0.22921    -0.22919
            eV          -9.0462     -8.3126     -8.3120     -6.2372     -6.2367
 occupation              2.0000      2.0000      2.0000      2.0000      2.0000 

    irrep                 22a         23a         24a         25a         26a   
 eigenvalues H         -0.03350    -0.03347     0.03174     0.06457     0.06457
            eV          -0.9115     -0.9109      0.8638      1.7571      1.7571
 
 
 
 
 ==============================================================================
                           electrostatic moments
 ==============================================================================

 reference point for electrostatic moments:    0.00000   0.00000   0.00000

 
              nuc           elec       ->  total
 ------------------------------------------------------------------------------
                          charge      
 ------------------------------------------------------------------------------
          42.000000     -42.000000      -0.000000
 
 ------------------------------------------------------------------------------
                       dipole moment  
 ------------------------------------------------------------------------------
   x      -8.845066       8.845049      -0.000017
   y      -4.591661       4.591914       0.000253
   z      30.104174     -30.099049       0.005125
 
   | dipole moment | =     0.0051 a.u. =     0.0130 debye 
 
 ------------------------------------------------------------------------------
                     quadrupole moment
 ------------------------------------------------------------------------------
  xx     192.370237    -216.127383     -23.757146
  yy     191.034448    -214.790397     -23.755949
  zz      21.828715     -50.932924     -29.104209
  xy       1.091364      -1.087832       0.003532
  xz      -1.241665       1.388548       0.146883
  yz      -7.952213       7.825885      -0.126328
 
     1/3  trace=     -25.539102
     anisotropy=       5.358182
 
 ==============================================================================
 


    ------------------------------------------------------------------------
         total  cpu-time :  3 minutes and 41 seconds
         total wall-time :  24.67 seconds
    ------------------------------------------------------------------------

   ****  ridft : all done  ****


    2018-04-28 21:07:59.090 

