
   OpenMP run-time library returned nthreads = 28
 operating system is UNIX !

 dscf (c-15-38) : TURBOMOLE V7.3 ( 22142 ) 4 Jul 2018 at 18:12:42
 Copyright (C) 2018 TURBOMOLE GmbH, Karlsruhe


    2019-04-01 22:58:10.603 



                             d s c f - program

                   idea & directorship : reinhart ahlrichs
                   program development : marco haeser
                                         michael baer
                           dft version : oliver treutler


                          quantum chemistry group
                          universitaet  karlsruhe
                                  germany




                          References             
                                                 
          TURBOMOLE:                             
              R. Ahlrichs, M. Baer, M. Haeser, H. Horn, and
              C. Koelmel
              Electronic structure calculations on workstation
              computers: the program system TURBOMOLE
              Chem. Phys. Lett. 162: 165 (1989)
          Density Functional:                              
              O. Treutler and R. Ahlrichs                      
              Efficient Molecular Numerical Integration Schemes
              J. Chem. Phys. 102: 346 (1995)                   
          Parallel Version:                                
              Performance of parallel TURBOMOLE for Density    
              Functional Calculations                          
              M. v. Arnim and R. Ahlrichs                      
              J. Comp. Chem. 19: 1746 (1998)                   
                                         




              +--------------------------------------------------+
              | Atomic coordinate, charge and isotop information |
              +--------------------------------------------------+

                    atomic coordinates            atom    charge  isotop
         -0.39477282   -1.82279699    1.01055191    n      7.000     0
         -0.42358398   -3.72863639    1.14344278    h      1.000     0
         -2.73319042   -0.65116395    0.57950072    c      6.000     0
         -4.65106342   -1.91011932    0.37396161    o      8.000     0
         -2.56583650    2.08471864    0.43112927    c      6.000     0
         -4.26430335    3.15155431    0.09419777    h      1.000     0
         -0.30803140    3.23122868    0.72022437    c      6.000     0
         -0.08747630    5.25806075    0.62993961    h      1.000     0
          1.86223458    1.89128350    1.15501264    n      7.000     0
          3.52917652    2.77209175    1.40743836    h      1.000     0
          1.94078826   -0.71652766    1.34670810    c      6.000     0
          3.87242055   -1.88480430    1.77116431    o      8.000     0
          2.15695697    4.45414407    7.66676664    c      0.000     0
          1.34277108    5.04194091    5.86626853    h      0.000     0
          0.95842857    5.22030163    9.15633883    h      0.000     0
          4.01433104    5.32426357    7.84274075    h      0.000     0
          2.29493809    1.58389394    7.83593179    c      0.000     0
          3.10824531    1.03669944    9.65250843    h      0.000     0
          3.56972767    0.84470762    6.39006800    h      0.000     0
         -0.28413215    0.34013922    7.54337052    c      0.000     0
         -1.55259997    1.03721347    9.02041682    h      0.000     0
         -1.12972955    0.92645513    5.74831924    h      0.000     0
         -0.17776147   -2.53354190    7.65606527    c      0.000     0
          0.62273690   -3.10505256    9.47140458    h      0.000     0
          1.12902523   -3.21739399    6.21136505    h      0.000     0
         -2.76533120   -3.74650648    7.30878340    c      0.000     0
         -3.59374744   -3.22974635    5.49429575    h      0.000     0
         -2.65773247   -5.80020110    7.39203942    h      0.000     0
         -4.06539244   -3.12602249    8.78132045    h      0.000     0
 
       center of nuclear mass  :   -0.11249498   -0.01455854    3.54551933
       center of nuclear charge:   -0.33104686    0.02176933    0.93207504

              +--------------------------------------------------+
              |               basis set information              |
              +--------------------------------------------------+

              we will work with the 1s 3p 5d 7f 9g ... basis set
              ...i.e. with spherical basis functions...

   type   atoms  prim   cont   basis
   ---------------------------------------------------------------------------
    n        2     77     55   cc-pVQZ   [5s4p3d2f1g|21s6p3d2f1g]
    h       16     32     30   cc-pVQZ   [4s3p2d1f|6s3p2d1f]
    c        9     77     55   cc-pVQZ   [5s4p3d2f1g|21s6p3d2f1g]
    o        2     77     55   cc-pVQZ   [5s4p3d2f1g|21s6p3d2f1g]
   ---------------------------------------------------------------------------
   total:   29   1513   1195
   ---------------------------------------------------------------------------

   total number of primitive shells          :  111
   total number of contracted shells         :  355
   total number of cartesian basis functions : 1470
   total number of SCF-basis functions       : 1195


 integral neglect threshold       :  0.23E-13
 integral storage threshold THIZE :  0.10E-04
 integral storage threshold THIME :         5


 DENSITY CONVERGENCE CHECK SWITCHED ON !
 SCF CONVERGENCE IF RMS(delta[D]) <     0.1000000000E-06


 symmetry group of the molecule :   c1 

 the group has the following generators :
   c1(z)

    1 symmetry operations found

 there are 1 real representations :   a   

 maximum number of shells which are related by symmetry :  1


    mo occupation :
   irrep   mo's   occupied
    a     1195       29
 
 number of basis functions   :                   1195
 number of occupied orbitals :                     29
 

 automatic virtual orbital shift switched on 
      shift if e(lumo)-e(homo) < 0.10000000    


          ------------------------
          nuclear repulsion energy  :   357.066176303    
          ------------------------


         -----------------
         -S,T+V- integrals
         -----------------

 1e-integrals will be neglected if expon. factor < 0.227344E-14
 
   Difference densities algorithm switched on.
   The maximal number of linear combinations of
   difference densities is                    20 .

 DIIS switched on: error vector is FDS-SDF
 Max. Iterations for DIIS is     :   5
 DIIS matrix (see manual) 
    Scaling factor of diagonals  :  1.200
    threshold for scaling factor :  0.000

 scf convergence criterion : increment of total energy < .1000000D-08
                  and increment of one-electron energy < .1000000D-05

  MOs are in ASCII format !


 reading orbital data $scfmo  from file mos
 orbital characterization : scfconv=9

 DSCF restart information will be dumped onto file mos

 
                                              current damping :  0.700
 ITERATION  ENERGY          1e-ENERGY        2e-ENERGY     RMS[dD(SAO)]   TOL
   1  -412.55046386274    -1271.7966312     502.17999106    0.000D+00 0.227D-13
          max. resid. norm for Fia-block=  1.167D-01 for orbital      1a         
          max. resid. fock norm         =  3.998D-01 for orbital   1057a         
          Delta Eig. =    29.7902532195 eV 
 
                                              current damping :  0.650
 ITERATION  ENERGY          1e-ENERGY        2e-ENERGY     RMS[dD(SAO)]   TOL
   2  -412.62803577936    -1270.5795516     500.88533956    0.679D-03 0.148D-13
          Norm of current diis error: 0.75643    
          max. resid. norm for Fia-block=  5.196D-02 for orbital      1a         
          max. resid. fock norm         =  1.769D-01 for orbital   1068a         
          Delta Eig. =    12.9982264511 eV 
 
                                              current damping :  0.600
 ITERATION  ENERGY          1e-ENERGY        2e-ENERGY     RMS[dD(SAO)]   TOL
   3  -412.64384841047    -1270.7200349     501.01001023    0.303D-03 0.112D-13
          Norm of current diis error: 0.34528    
          max. resid. norm for Fia-block=  2.442D-02 for orbital      2a         
          max. resid. fock norm         =  5.656D-02 for orbital   1074a         
          Delta Eig. =     5.7147937741 eV 
 
                                              current damping :  0.650
 ITERATION  ENERGY          1e-ENERGY        2e-ENERGY     RMS[dD(SAO)]   TOL
   4  -412.64787573748    -1270.6594561     500.94540403    0.167D-03 0.980D-14
          Norm of current diis error: 0.14964    
          max. resid. norm for Fia-block=  9.381D-03 for orbital     24a         
          max. resid. fock norm         =  2.717D-02 for orbital   1080a         
          Delta Eig. =     2.0155461062 eV 
 
                                              current damping :  0.500
 ITERATION  ENERGY          1e-ENERGY        2e-ENERGY     RMS[dD(SAO)]   TOL
   5  -412.64869463391    -1270.6395002     500.92462928    0.586D-04 0.908D-14
          Norm of current diis error: 0.68160E-01
          max. resid. norm for Fia-block=  4.875D-03 for orbital     24a         
          max. resid. fock norm         =  9.680D-03 for orbital   1080a         
 mo-orthogonalization: Cholesky decomposition
          Delta Eig. =     0.8132712422 eV 
 
                                              current damping :  0.350
 ITERATION  ENERGY          1e-ENERGY        2e-ENERGY     RMS[dD(SAO)]   TOL
   6  -412.64890791518    -1270.6320605     500.91697631    0.317D-04 0.847D-14
          Norm of current diis error: 0.29668E-01
          max. resid. norm for Fia-block=  2.271D-03 for orbital     24a         
          max. resid. fock norm         =  3.225D-03 for orbital   1080a         
          Delta Eig. =     0.3018812631 eV 
 
                                              current damping :  0.200
 ITERATION  ENERGY          1e-ENERGY        2e-ENERGY     RMS[dD(SAO)]   TOL
   7  -412.64895922209    -1270.6303910     500.91525544    0.143D-04 0.786D-14
          Norm of current diis error: 0.12083E-01
          max. resid. norm for Fia-block=  1.013D-03 for orbital     20a         
          max. resid. fock norm         =  1.060D-03 for orbital     32a         
          Delta Eig. =     0.0882720928 eV 
 
                                              current damping :  0.050
 ITERATION  ENERGY          1e-ENERGY        2e-ENERGY     RMS[dD(SAO)]   TOL
   8  -412.64896996604    -1270.6295432     500.91439688    0.608D-05 0.731D-14
          Norm of current diis error: 0.43881E-02
          max. resid. norm for Fia-block=  3.866D-04 for orbital     29a         
          max. resid. fock norm         =  4.275D-04 for orbital     32a         
          Delta Eig. =     0.0193761720 eV 
 
                                              current damping :  0.100
 ITERATION  ENERGY          1e-ENERGY        2e-ENERGY     RMS[dD(SAO)]   TOL
   9  -412.64897165808    -1270.6298960     500.91474803    0.225D-05 0.685D-14
          Norm of current diis error: 0.13303E-02
          max. resid. norm for Fia-block=  1.063D-04 for orbital     29a         
          max. resid. fock norm         =  1.154D-04 for orbital     27a         
          Delta Eig. =     0.0059082070 eV 
 
                                              current damping :  0.150
 ITERATION  ENERGY          1e-ENERGY        2e-ENERGY     RMS[dD(SAO)]   TOL
  10  -412.64897178391    -1270.6296782     500.91453009    0.629D-06 0.661D-14
          Norm of current diis error: 0.52970E-03
          max. resid. norm for Fia-block=  4.732D-05 for orbital     28a         
          max. resid. fock norm         =  5.826D-05 for orbital     28a         
 mo-orthogonalization: Cholesky decomposition
          Delta Eig. =     0.0028452783 eV 
 
                                              current damping :  0.200
 ITERATION  ENERGY          1e-ENERGY        2e-ENERGY     RMS[dD(SAO)]   TOL
  11  -412.64897179924    -1270.6298776     500.91472948    0.165D-06 0.649D-14
          Norm of current diis error: 0.25369E-03
          max. resid. norm for Fia-block=  1.492D-05 for orbital     27a         
          max. resid. fock norm         =  1.928D-05 for orbital   1055a         
          Delta Eig. =     0.0008723556 eV 

 DENSITY CONVERGED !

 
                                              current damping :  0.250
 ITERATION  ENERGY          1e-ENERGY        2e-ENERGY     RMS[dD(SAO)]   TOL
  12  -412.64897180256    -1270.6298566     500.91470851    0.922D-07 0.637D-14
          Norm of current diis error: 0.86311E-04
          max. resid. norm for Fia-block=  8.649D-06 for orbital     28a         
          max. resid. fock norm         =  8.703D-06 for orbital     28a         
          Delta Eig. =     0.0001279600 eV 

 DENSITY CONVERGED !

 
                                              current damping :  0.300
 ITERATION  ENERGY          1e-ENERGY        2e-ENERGY     RMS[dD(SAO)]   TOL
  13  -412.64897180320    -1270.6298609     500.91471283    0.421D-07 0.647D-14
          Norm of current diis error: 0.41377E-04
          max. resid. norm for Fia-block=  4.796D-06 for orbital     28a         
          max. resid. fock norm         =  4.827D-06 for orbital     28a         
          Delta Eig. =     0.0000654041 eV 

 DENSITY CONVERGED !

 
                                              current damping :  0.150
 ITERATION  ENERGY          1e-ENERGY        2e-ENERGY     RMS[dD(SAO)]   TOL
  14  -412.64897180337    -1270.6298655     500.91471734    0.247D-07 0.646D-14
          Norm of current diis error: 0.18631E-04
          max. resid. norm for Fia-block=  2.364D-06 for orbital     28a         
          max. resid. fock norm         =  2.377D-06 for orbital     28a         
          Delta Eig. =     0.0000405176 eV 

 ENERGY & DENSITY CONVERGED !

 
                                              current damping :  0.050
 ITERATION  ENERGY          1e-ENERGY        2e-ENERGY     RMS[dD(SAO)]   TOL
  15  -412.64897180341    -1270.6298671     500.91471897    0.159D-07 0.646D-14
          max. resid. norm for Fia-block=  3.975D-07 for orbital     24a         
          max. resid. fock norm         =  4.280D-07 for orbital     21a         

 convergence criteria satisfied after    15 iterations


                  ------------------------------------------ 
                 |  total energy      =   -412.64897180341  |
                  ------------------------------------------ 
                 :  kinetic energy    =    412.07664226652  :
                 :  potential energy  =   -824.72561406993  :
                 :  virial theorem    =      1.99861303535  :
                 :  wavefunction norm =      1.00000000000  :
                  .......................................... 


 orbitals $scfmo  will be written to file mos

    irrep                 25a         26a         27a         28a         29a   
 eigenvalues H         -0.52637    -0.48411    -0.44968    -0.43728    -0.36941
            eV         -14.3235    -13.1733    -12.2365    -11.8992    -10.0521
 occupation              2.0000      2.0000      2.0000      2.0000      2.0000 

    irrep                 30a         31a         32a         33a         34a   
 eigenvalues H          0.04482     0.07150     0.08313     0.09572     0.10864
            eV           1.2197      1.9456      2.2620      2.6048      2.9562
 
 
 
 
 ==============================================================================
                           electrostatic moments
 ==============================================================================

 reference point for electrostatic moments:    0.00000   0.00000   0.00000

 
              nuc           elec       ->  total
 ------------------------------------------------------------------------------
                          charge      
 ------------------------------------------------------------------------------
          58.000000     -58.000000       0.000000
 
 ------------------------------------------------------------------------------
                       dipole moment  
 ------------------------------------------------------------------------------
   x     -19.200718      19.736767       0.536049
   y       1.262621       0.634454       1.897075
   z      54.060353     -54.112782      -0.052430
 
   | dipole moment | =     1.9721 a.u. =     5.0125 debye 
 
 ------------------------------------------------------------------------------
                     quadrupole moment
 ------------------------------------------------------------------------------
  xx     456.709378    -501.273730     -44.564352
  yy     259.417760    -287.604387     -28.186627
  zz      63.520126     -98.506889     -34.986764
  xy       4.105889      -2.966353       1.139536
  xz      55.455098     -56.610022      -1.154924
  yz     -15.474566      17.221542       1.746976
 
     1/3  trace=     -35.912581
     anisotropy=      14.837585
 
 ==============================================================================
 


    ------------------------------------------------------------------------
         total  cpu-time : 15 hours  5 minutes and 45 seconds
         total wall-time : 35 minutes and 24 seconds
    ------------------------------------------------------------------------

   ****  dscf : all done  ****


    2019-04-01 23:33:34.871 

