Using Slurm to start processes with PMI2
STARTING ridft ON 8 PROCESSORS!
RUNNING PROGRAM /modfac/apps/TURBOMOLE/7.0_intel_GA/bin/em64t-unknown-linux-gnu_mpi/ridft_mpi.
PLEASE WAIT UNTIL ridft HAS FINISHED.
Look for the output in slave1.output.
  this is node-proc. number 1 running on node c-16-42.local
  the total number of node-proc. spawned is            8
  parallel platform: MPP, or cluster with fast interconnect

 ridft (c-16-42.local) : TURBOMOLE V7.0.2( ) 15 Jan 2016 at 17:47:42
 Copyright (C) 2016 TURBOMOLE GmbH, Karlsruhe


    2016-02-16 03:30:32.795 



                                  r i d f t

                        DFT program with RI approximation 
                                for coulomb part 




                                                 
                                 References:     
                                                 
          TURBOMOLE:                             
              R. Ahlrichs, M. Baer, M. Haeser, H. Horn, and
              C. Koelmel
              Electronic structure calculations on workstation
              computers: the program system TURBOMOLE
              Chem. Phys. Lett. 162: 165 (1989)
          Density Functional:                              
              O. Treutler and R. Ahlrichs                      
              Efficient Molecular Numerical Integration Schemes
              J. Chem. Phys. 102: 346 (1995)                   
          Parallel Version:                                
              Performance of parallel TURBOMOLE for Density    
              Functional Calculations                          
              M. v. Arnim and R. Ahlrichs                      
              J. Comp. Chem. 19: 1746 (1998)                   
          RI-J Method:                                     
              Auxiliary Basis Sets to approximate Coulomb      
              Potentials                                       
              Chem. Phys. Lett. 240: 283 (1995)                
              K. Eichkorn, O. Treutler, H. Oehm, M. Haeser     
              and R. Ahlrichs                                  
              Chem. Phys. Lett. 242: 652 (1995)                
                                                           
              Auxiliary Basis Sets for Main Row Atoms and their
              Use to approximate Coulomb Potentials            
              K. Eichkorn, F. Weigend, O. Treutler and         
              R. Ahlrichs                                      
              Theo. Chem. Acc. 97: 119 (1997)                   
                                                           
              Accurate Coulomb-fitting basis sets for H to Rn 
              F. Weigend                                        
              Phys. Chem. Chem. Phys. 8: 1057 (2006)            
                                                           
          Multipole accelerated RI-J (MARI-J):             
              Fast evaluation of the Coulomb potential for     
              electron densities using multipole accelerated   
              resolution of identity approximation             
              M. Sierka, A. Hogekamp and R. Ahlrichs           
              J. Chem. Phys. 118: 9136 (2003)                  
          RI-JK Method:                                     
              A fully direct RI-HF algorithm: Implementation,
              optimised auxiliary basis sets, demonstration of
              accuracy and efficiency                         
              F. Weigend                                      
              Phys. Chem. Chem. Phys. 4: 4285 (2002)           
          Two-component HF and DFT with spin-orbit coupling:  
              Self-consistent treatment of spin-orbit         
              interactions with efficient Hartree-Fock and    
              density functional methods                      
              M. K. Armbruster, F. Weigend, C. van Wüllen and 
              W. Klopper                                      
              Phys. Chem. Chem. Phys. 10: 1748 (2008)         
          Relativistic all-electron 2c calculations           
              An efficient implementation of two-component    
              relativistic exact-decoupling methods for large 
              molecules                                       
              D. Peng, N. Middendorf, F. Weigend, M. Reiher   
              J. Chem. Phys. 138, 184105 (2013)               
                                         


 


              +--------------------------------------------------+
              |      general information about current run       |
              +--------------------------------------------------+

 

 SCF run will be profiled !


 DENSITY CONVERGENCE CHECK SWITCHED ON !
 SCF CONVERGENCE IF RMS(delta[D]) <     0.1000000000E-06

 TPSS meta-GGA functional
 exchange:    LDA + TPSS
 correlation: LDA (PW) + TPSS
 A DFT calculation using the RI-J approximation will be carried out.
 Allocatable memory for RI due to $ricore (MB):        5000


              +--------------------------------------------------+
              | Atomic coordinate, charge and isotop information |
              +--------------------------------------------------+

                    atomic coordinates            atom    charge  isotop
         -1.45507023   -0.18116804   -9.52270793    c      6.000     0
          1.50694321   -0.19354575   -9.48385516    c      6.000     0
          2.12405217    2.03944913   -8.00569248    n      7.000     0
          0.01645951    3.36017873   -7.21206420    c      6.000     0
         -2.08591750    2.09778498   -8.13413717    n      7.000     0
         -2.11122093   -2.53465187   -8.30614004    n      7.000     0
         -0.00725655   -4.02169626   -7.73304279    c      6.000     0
          2.12063177   -2.59098460   -8.33444814    n      7.000     0
         -0.03645282   -6.16685667   -6.93790273    o      8.000     0
         -0.00895730    5.31224693   -5.97635338    o      8.000     0
          4.64216894   -3.65890664   -8.16070672    c      6.000     0
          4.65250574    3.05453442   -7.73168219    c      6.000     0
         -9.05653139   -0.26688602   -3.51065762    c      6.000     0
         -7.56616108   -0.22542543   -6.07306957    c      6.000     0
         -6.12363864    2.11449016   -5.91062871    n      7.000     0
         -9.37086843    3.09775246    0.00000000    c      6.000     0
         -8.30425031    2.09292838   -2.31070042    n      7.000     0
         -8.17098683   -2.54512095   -2.30450212    n      7.000     0
         -6.52184173   -3.94132621   -3.81932549    c      6.000     0
         -6.11014599   -2.52684730   -6.00348985    n      7.000     0
         -5.67367595   -6.01403452   -3.35445286    o      8.000     0
         -5.63975536    5.48396634   -3.13932644    o      8.000     0
         -4.64532478   -3.53892792   -8.09163723    c      6.000     0
         -4.58761254    3.15924415   -7.92668303    c      6.000     0
          9.10583434   -0.57311614    3.51303868    c      6.000     0
          7.58458591   -0.42533956    6.04999601    c      6.000     0
          6.13149990    1.88976393    5.75576565    n      7.000     0
          6.82701360    3.27045453    3.63360320    c      6.000     0
          8.57312055    1.83190051    2.31408303    n      7.000     0
          8.06121263   -2.79176801    2.29739675    n      7.000     0
          6.45233760   -4.16066672    3.87110398    c      6.000     0
          6.15124754   -2.74246505    6.07186014    n      7.000     0
          5.54266123   -6.21721787    3.44175821    o      8.000     0
          6.07316405    5.37345516    3.07906307    o      8.000     0
          4.64216894   -3.65890664    8.16070672    c      6.000     0
          4.65250574    3.05453442    7.73168219    c      6.000     0
          7.58458591   -0.42533956   -6.04999601    c      6.000     0
          9.10583434   -0.57311614   -3.51303868    c      6.000     0
          8.57312055    1.83190051   -2.31408303    n      7.000     0
          6.82701360    3.27045453   -3.63360320    c      6.000     0
          6.13149990    1.88976393   -5.75576565    n      7.000     0
          6.15124754   -2.74246505   -6.07186014    n      7.000     0
          6.45233760   -4.16066672   -3.87110398    c      6.000     0
          8.06121263   -2.79176801   -2.29739675    n      7.000     0
          5.54266123   -6.21721787   -3.44175821    o      8.000     0
          6.07316405    5.37345516   -3.07906307    o      8.000     0
          9.04266080   -3.90976778    0.00000000    c      6.000     0
          9.71687729    2.74495949    0.00000000    c      6.000     0
         -7.56616108   -0.22542543    6.07306957    c      6.000     0
         -9.05653139   -0.26688602    3.51065762    c      6.000     0
         -8.30425031    2.09292838    2.31070042    n      7.000     0
         -6.57074784    3.43610792    3.71760153    c      6.000     0
         -6.12363864    2.11449016    5.91062871    n      7.000     0
         -6.11014599   -2.52684730    6.00348985    n      7.000     0
         -6.52184173   -3.94132621    3.81932549    c      6.000     0
         -8.17098683   -2.54512095    2.30450212    n      7.000     0
         -5.67367595   -6.01403452    3.35445286    o      8.000     0
         -5.63975536    5.48396634    3.13932644    o      8.000     0
         -9.20056631   -3.60705255    0.00000000    c      6.000     0
         -6.57074784    3.43610792   -3.71760153    c      6.000     0
          1.50694321   -0.19354575    9.48385516    c      6.000     0
         -1.45507023   -0.18116804    9.52270793    c      6.000     0
         -2.08591750    2.09778498    8.13413717    n      7.000     0
          0.01645951    3.36017873    7.21206420    c      6.000     0
          2.12405217    2.03944913    8.00569248    n      7.000     0
          2.12063177   -2.59098460    8.33444814    n      7.000     0
         -0.00725655   -4.02169626    7.73304279    c      6.000     0
         -2.11122093   -2.53465187    8.30614004    n      7.000     0
         -0.03645282   -6.16685667    6.93790273    o      8.000     0
         -0.00895730    5.31224693    5.97635338    o      8.000     0
         -4.64532478   -3.53892792    8.09163723    c      6.000     0
         -4.58761254    3.15924415    7.92668303    c      6.000     0
         -2.26134078   -0.09000766  -11.43386356    h      1.000     0
          2.36251671   -0.04667624  -11.36963176    h      1.000     0
          5.65623377   -3.29653275   -9.93270291    h      1.000     0
          4.39138338   -5.68873706   -7.86687320    h      1.000     0
          5.63960418    2.85915564   -9.54699091    h      1.000     0
          4.45818520    5.04774196   -7.22533007    h      1.000     0
        -11.11797694   -0.30458606   -3.74736472    h      1.000     0
         -8.79102487   -0.17697285   -7.74736692    h      1.000     0
         -4.44148002   -5.56620722   -7.74468351    h      1.000     0
         -5.67764437   -3.20047797   -9.85896580    h      1.000     0
          5.63960418    2.85915564    9.54699091    h      1.000     0
         -5.58166518    2.89152665   -9.72543775    h      1.000     0
         11.15295577   -0.78688196    3.78716235    h      1.000     0
          8.79329254   -0.30078771    7.73402545    h      1.000     0
          5.65623377   -3.29653275    9.93270291    h      1.000     0
          4.39138338   -5.68873706    7.86687320    h      1.000     0
         -4.36645789    5.17032849   -7.51661246    h      1.000     0
          4.45818520    5.04774196    7.22533007    h      1.000     0
          8.79329254   -0.30078771   -7.73402545    h      1.000     0
         11.15295577   -0.78688196   -3.78716235    h      1.000     0
          8.44329636   -5.88825435    0.00000000    h      1.000     0
         11.11502896   -3.77504920    0.00000000    h      1.000     0
          9.49052589    4.79718317    0.00000000    h      1.000     0
         11.72369085    2.23367519    0.00000000    h      1.000     0
         -8.79102487   -0.17697285    7.74736692    h      1.000     0
        -11.11797694   -0.30458606    3.74736472    h      1.000     0
        -11.26238981   -3.37189503    0.00000000    h      1.000     0
         -8.69678423   -5.61186301    0.00000000    h      1.000     0
        -11.41194273    2.74206821    0.00000000    h      1.000     0
         -8.99305549    5.12697818    0.00000000    h      1.000     0
          2.36251671   -0.04667624   11.36963176    h      1.000     0
         -2.26134078   -0.09000766   11.43386356    h      1.000     0
         -4.44148002   -5.56620722    7.74468351    h      1.000     0
         -5.67764437   -3.20047797    9.85896580    h      1.000     0
         -4.36645789    5.17032849    7.51661246    h      1.000     0
         -5.58166518    2.89152665    9.72543775    h      1.000     0
 
       center of nuclear mass  :    0.02764207   -0.32379759    0.00000000
       center of nuclear charge:    0.02749610   -0.32290736    0.00000000

              +--------------------------------------------------+
              |               basis set information              |
              +--------------------------------------------------+

              we will work with the 1s 3p 5d 7f 9g ... basis set
              ...i.e. with spherical basis functions...

   type   atoms  prim   cont   basis
   ---------------------------------------------------------------------------
    c       36     77     55   cc-pVQZ   [5s4p3d2f1g|21s6p3d2f1g]
    n       24     77     55   cc-pVQZ   [5s4p3d2f1g|21s6p3d2f1g]
    o       12     77     55   cc-pVQZ   [5s4p3d2f1g|21s6p3d2f1g]
    h       36     32     30   cc-pVQZ   [4s3p2d1f|6s3p2d1f]
   ---------------------------------------------------------------------------
   total:  108   6696   5040
   ---------------------------------------------------------------------------

   total number of primitive shells          :  111
   total number of contracted shells         : 1440
   total number of cartesian basis functions : 6300
   total number of SCF-basis functions       : 5040


 integral neglect threshold       :  0.53E-14
 integral storage threshold THIZE :  0.10E-04
 integral storage threshold THIME :         5

 RI-J AUXILIARY BASIS SET information:

              we will work with the 1s 3p 5d 7f 9g ... basis set
              ...i.e. with spherical basis functions...

   type   atoms  prim   cont   basis
   ---------------------------------------------------------------------------
    c       36     70     49   cc-pVQZ   [6s4p3d1f1g|12s5p4d2f1g]
    n       24     70     49   cc-pVQZ   [6s4p3d1f1g|12s5p4d2f1g]
    o       12     70     49   cc-pVQZ   [6s4p3d1f1g|12s5p4d2f1g]
    h       36     16     11   cc-pVQZ   [3s1p1d|5s2p1d]
   ---------------------------------------------------------------------------
   total:  108   5616   3924
   ---------------------------------------------------------------------------

   total number of primitive shells          :   80
   total number of contracted shells         : 1260
   total number of cartesian basis functions : 4824
   total number of SCF-basis functions       : 3924


 symmetry group of the molecule :   c1 

 the group has the following generators :
   c1(z)

    1 symmetry operations found

 there are 1 real representations :   a   

 maximum number of shells which are related by symmetry :  1


    mo occupation :
   irrep   mo's   occupied
    a     5040      258
 
 number of basis functions   :         5040
 number of occupied orbitals :          258
 
  
           ------------------
           density functional
           ------------------
 TPSS meta-GGA functional
 exchange:    LDA + TPSS
 correlation: LDA (PW) + TPSS
 grinp -> nfun, dfgga, dfhybrid 
           5 F F
 iterations will be done with small grid
  
 spherical integration : Lebedev's spherical grid
 spherical gridsize    :           5
    i.e. gridpoints    :         590
 value for diffuse not defined
 radial integration    : Chebyshev 2nd kind (scaling 3)
 radial gridsize       :           8
 integration cells     :         108
 partition function    : becke
 partition sharpness   :           3
  

 <rddim> : input of entry tasksize
           from data group '$pardft' failed !

               Default values taken

 <rddim> : input of entry memdiv
           from data group '$pardft' failed !

               Default values taken
  RIDFT: memory allocation for DFT gridpoints
  MEMORY is divided by 1 as DEFAULT
 Each node can hold at most  the            1 -th part
 of the gridpoints    

 biggest AO integral is expected to be     4.785886462
  
           ------------------------
               RI-J - INFORMATION
           ------------------------
 
 
 **************************************************
 *      MEMORY ALLOCATION FOR PARALLEL RI-DFT     *
 **************************************************
 
 
MEMORY FOR (MU NU/ ALPHA), SEQUENTIAL RUN               4870 MByte
 
            DIFFERENCE IN MEMORY NEED:       DIAG./SLAVE  
 
      TOTAL DIFFERENCE :                   1162 MByte
 
      difference in xcore:                  130 MByte
      difference in fatmat:                 342 MByte
      getcor calls skipped by slaves:       691 MByte
 
 
           Integral memory available for diagonal.      4870 MByte
 
           Integral memory available for slave             0 MByte
 
         MEMORY FOR (MU NU/ ALPHA) ON DIAGONALIZER      4870 MByte
 
         MEMORY FOR (MU NU/ ALPHA) ON ONE SLAVE            0 MByte
 
         TOTAL MEMORY FOR (MU NU/ ALPHA),ALL NODES      4870 MByte
 
 Contributions to RI integral batches: 
  neglected integral batches:      703614
  direct contribution:             293128
  memory contribution:       40778
 Memory core needed for (P|Q) and Cholesky    118 MByte
 Memory core minimum needed except of (P|Q)    14 MByte
 Total minimum memory core needed (sum)       131 MByte
     number of direct tasks:         160
  
 ****************************************
 Memory allocated for RI-J  5001 MByte
 ****************************************
                                            

          ------------------------
          nuclear repulsion energy  :   13462.6561478    
          ------------------------

 
          -----------------
          -S integrals
          -----------------

 1e-integrals will be neglected if expon. factor < 0.530470E-15
 
          -----------------
          -T+V integrals
          -----------------

 1e-integrals will be neglected if expon. factor < 0.530470E-15
 Difference densities >>NOT<< switched on in parallel ridft!

 automatic virtual orbital shift switched on 
      shift if e(lumo)-e(homo) < 0.10000000    


 DIIS switched on: error vector is FDS-SDF
 Max. Iterations for DIIS is     :   4
 DIIS matrix (see manual) 
    Scaling factor of diagonals  :  1.200
    threshold for scaling factor :  0.000

 scf convergence criterion : increment of total energy < .1000000D-08
                  and increment of one-electron energy < .1000000D-05


 <geterg> : there is no data group $energy 

  MOs are in ASCII format !


 reading orbital data $scfmo  from file mos . 

 orbital characterization : expanded
 
 mo provided and orthogonalized by Cholesky decomposition

 DSCF restart information will be dumped onto file mos


 Starting SCF iterations


 ITERATION  ENERGY          1e-ENERGY        2e-ENERGY     RMS[dD(SAO)]   TOL
   1  -3597.7075695025    -31666.573927     14606.210210    0.000D+00 0.529D-14
                            Exc = -477.060242184     Coul =  15083.2704521    
                              N = 516.00100690    
                            current damping = 0.700
 
          max. resid. norm for Fia-block=  4.401D-01 for orbital    177a         
          max. resid. fock norm         =  9.264D+00 for orbital   4603a         

 ITERATION  ENERGY          1e-ENERGY        2e-ENERGY     RMS[dD(SAO)]   TOL
   2  -3610.1650394642    -31737.937367     14665.116180    0.392D-02 0.529D-14
                            Exc = -477.710226798     Coul =  15142.8264067    
                              N = 516.00085923    
                            current damping = 0.650
 
          Norm of current diis error:  9.5973    
          max. resid. norm for Fia-block=  1.700D-01 for orbital      1a         
          max. resid. fock norm         =  3.547D-01 for orbital   4590a         

 ITERATION  ENERGY          1e-ENERGY        2e-ENERGY     RMS[dD(SAO)]   TOL
   3  -3611.9211831931    -31759.767936     14685.190605    0.143D-02 0.529D-14
                            Exc = -479.975509392     Coul =  15165.1661147    
                              N = 516.00080623    
                            current damping = 0.550
 
          Norm of current diis error:  4.6507    
          max. resid. norm for Fia-block=  6.515D-02 for orbital      3a         
          max. resid. fock norm         =  7.962D-02 for orbital   2645a         

 ITERATION  ENERGY          1e-ENERGY        2e-ENERGY     RMS[dD(SAO)]   TOL
   4  -3612.4492965491    -31770.412253     14695.306809    0.675D-03 0.529D-14
                            Exc = -479.594323138     Coul =  15174.9011319    
                              N = 516.00077824    
                            current damping = 0.450
 
          Norm of current diis error:  2.0837    
          max. resid. norm for Fia-block=  3.454D-02 for orbital     88a         
          max. resid. fock norm         =  8.724D-02 for orbital   4875a         

 ITERATION  ENERGY          1e-ENERGY        2e-ENERGY     RMS[dD(SAO)]   TOL
   5  -3612.5175427296    -31767.226857     14692.053167    0.349D-03 0.529D-14
                            Exc = -480.266215746     Coul =  15172.3193825    
                              N = 516.00077416    
                            current damping = 0.500
 
          Norm of current diis error:  1.5125    
          max. resid. norm for Fia-block=  1.441D-02 for orbital    246a         
          max. resid. fock norm         =  1.690D-02 for orbital    246a         
          mo-orthogonalization: Cholesky decomposition

 ITERATION  ENERGY          1e-ENERGY        2e-ENERGY     RMS[dD(SAO)]   TOL
   6  -3612.5787382269    -31773.501923     14698.267037    0.163D-03 0.529D-14
                            Exc = -480.288517363     Coul =  15178.5555541    
                              N = 516.00077787    
                            current damping = 0.550
 
          Norm of current diis error: 0.27047    
          max. resid. norm for Fia-block=  3.408D-03 for orbital    192a         
          max. resid. fock norm         =  6.745D-03 for orbital   4875a         

 ITERATION  ENERGY          1e-ENERGY        2e-ENERGY     RMS[dD(SAO)]   TOL
   7  -3612.5805525522    -31772.487318     14697.250618    0.674D-04 0.529D-14
                            Exc = -480.192042113     Coul =  15177.4426602    
                              N = 516.00077425    
                            current damping = 0.600
 
          Norm of current diis error: 0.12047    
          max. resid. norm for Fia-block=  1.368D-03 for orbital     82a         
          max. resid. fock norm         =  2.891D-03 for orbital   4878a         

 ITERATION  ENERGY          1e-ENERGY        2e-ENERGY     RMS[dD(SAO)]   TOL
   8  -3612.5808876391    -31772.721424     14697.484389    0.195D-04 0.529D-14
                            Exc = -480.213382689     Coul =  15177.6977714    
                              N = 516.00077515    
                            current damping = 0.650
 
          Norm of current diis error: 0.37670E-01
          max. resid. norm for Fia-block=  1.116D-03 for orbital    246a         
          max. resid. fock norm         =  2.499D-03 for orbital   5033a         

 ITERATION  ENERGY          1e-ENERGY        2e-ENERGY     RMS[dD(SAO)]   TOL
   9  -3612.5808899514    -31772.937040     14697.700002    0.631D-05 0.529D-14
                            Exc = -480.234114879     Coul =  15177.9341170    
                              N = 516.00077547    
                            current damping = 0.500
 
          Norm of current diis error: 0.39127E-01
          max. resid. norm for Fia-block=  5.746D-04 for orbital    246a         
          max. resid. fock norm         =  1.260D-03 for orbital   5033a         

 ITERATION  ENERGY          1e-ENERGY        2e-ENERGY     RMS[dD(SAO)]   TOL
  10  -3612.5809321370    -31772.964067     14697.726987    0.421D-05 0.529D-14
                            Exc = -480.233344741     Coul =  15177.9603316    
                              N = 516.00077556    
                            current damping = 0.350
 
          Norm of current diis error: 0.67638E-02
          max. resid. norm for Fia-block=  1.102D-04 for orbital    223a         
          max. resid. fock norm         =  1.875D-04 for orbital   4875a         
          mo-orthogonalization: Cholesky decomposition

 ITERATION  ENERGY          1e-ENERGY        2e-ENERGY     RMS[dD(SAO)]   TOL
  11  -3612.5809330661    -31772.869017     14697.631936    0.225D-05 0.529D-14
                            Exc = -480.227762341     Coul =  15177.8596984    
                              N = 516.00077546    
                            current damping = 0.400
 
          Norm of current diis error: 0.43862E-02
          max. resid. norm for Fia-block=  5.167D-05 for orbital    246a         
          max. resid. fock norm         =  8.125D-05 for orbital   5036a         

 ITERATION  ENERGY          1e-ENERGY        2e-ENERGY     RMS[dD(SAO)]   TOL
  12  -3612.5809334075    -31772.904557     14697.667476    0.439D-06 0.529D-14
                            Exc = -480.228868434     Coul =  15177.8963441    
                              N = 516.00077552    
                            current damping = 0.450
 
          Norm of current diis error: 0.21077E-02
          max. resid. norm for Fia-block=  3.275D-05 for orbital    228a         
          max. resid. fock norm         =  6.274D-05 for orbital   5038a         

 ITERATION  ENERGY          1e-ENERGY        2e-ENERGY     RMS[dD(SAO)]   TOL
  13  -3612.5809335013    -31772.905817     14697.668735    0.185D-06 0.529D-14
                            Exc = -480.229680577     Coul =  15177.8984159    
                              N = 516.00077552    
                            current damping = 0.300
 
          Norm of current diis error: 0.84430E-03
          max. resid. norm for Fia-block=  1.376D-05 for orbital    228a         
          max. resid. fock norm         =  2.717D-05 for orbital   5038a         

 ITERATION  ENERGY          1e-ENERGY        2e-ENERGY     RMS[dD(SAO)]   TOL
  14  -3612.5809335123    -31772.904972     14697.667891    0.104D-06 0.529D-14
                            Exc = -480.229416237     Coul =  15177.8973072    
                              N = 516.00077552    
                            current damping = 0.350
 
          Norm of current diis error: 0.54313E-03
          max. resid. norm for Fia-block=  5.274D-06 for orbital    246a         
          max. resid. fock norm         =  1.000D-05 for orbital   4879a         

 DENSITY CONVERGED !


 ITERATION  ENERGY          1e-ENERGY        2e-ENERGY     RMS[dD(SAO)]   TOL
  15  -3612.5809335187    -31772.904878     14697.667797    0.343D-07 0.529D-14
                            Exc = -480.229480046     Coul =  15177.8972766    
                              N = 516.00077553    
                            current damping = 0.200
 
          Norm of current diis error: 0.13987E-03
          max. resid. norm for Fia-block=  3.138D-06 for orbital    246a         
          max. resid. fock norm         =  7.983D-06 for orbital   5033a         
          mo-orthogonalization: Cholesky decomposition

 DENSITY CONVERGED !


 ITERATION  ENERGY          1e-ENERGY        2e-ENERGY     RMS[dD(SAO)]   TOL
  16  -3612.5809335189    -31772.905183     14697.668101    0.201D-07 0.529D-14
                            Exc = -480.229471907     Coul =  15177.8975734    
                              N = 516.00077553    
                            current damping = 0.250
 
          Norm of current diis error: 0.15015E-03
          max. resid. norm for Fia-block=  1.923D-06 for orbital    246a         
          max. resid. fock norm         =  4.383D-06 for orbital   5033a         

 DENSITY CONVERGED !


 ITERATION  ENERGY          1e-ENERGY        2e-ENERGY     RMS[dD(SAO)]   TOL
  17  -3612.5809335194    -31772.905086     14697.668004    0.937D-08 0.529D-14
                            Exc = -480.229482992     Coul =  15177.8974874    
                              N = 516.00077553    
                            current damping = 0.300
 
          Norm of current diis error: 0.21709E-04
          max. resid. norm for Fia-block=  3.190D-07 for orbital    247a         
          max. resid. fock norm         =  7.930D-07 for orbital   5025a         

 ENERGY & DENSITY CONVERGED !


 ITERATION  ENERGY          1e-ENERGY        2e-ENERGY     RMS[dD(SAO)]   TOL
  18  -3612.5799156169    -31772.905029     14697.668966    0.257D-08 0.529D-14
                            Exc = -480.228463970     Coul =  15177.8974295    
                              N = 516.00017903    
                            current damping = 0.350
 
          Norm of current diis error: 0.20845E-04
          max. resid. norm for Fia-block=  1.485D-07 for orbital    237a         
          max. resid. fock norm         =  4.774D-07 for orbital   5038a         

 End of SCF iterations

   convergence criteria satisfied after   18 iterations


                  ------------------------------------------ 
                 |  total energy      =  -3612.57991561687  |
                  ------------------------------------------ 
                 :  kinetic energy    =   3598.11037371580  :
                 :  potential energy  =  -7210.69028933267  :
                 :  virial theorem    =      1.99599467908  :
                 :  wavefunction norm =      1.00000000000  :
                  .......................................... 


 <geterg> : there is no data group $energy 


 <skperg> : $end is missing 


 orbitals $scfmo  will be written to file mos

    irrep                254a        255a        256a        257a        258a   
 eigenvalues H         -0.21227    -0.20947    -0.20719    -0.20681    -0.19828
            eV          -5.7762     -5.6999     -5.6381     -5.6276     -5.3956
 occupation              2.0000      2.0000      2.0000      2.0000      2.0000 

    irrep                259a        260a        261a        262a        263a   
 eigenvalues H         -0.02104    -0.01699    -0.01661    -0.00786    -0.00758
            eV          -0.5726     -0.4624     -0.4520     -0.2139     -0.2063
 
 
 ! grave: sending quit signal to master process
 
 
 
 
 ==============================================================================
                           electrostatic moments
 ==============================================================================

 reference point for electrostatic moments:    0.00000   0.00000   0.00000

 
              nuc           elec       ->  total
 ------------------------------------------------------------------------------
                          charge      
 ------------------------------------------------------------------------------
         516.000000    -516.000000      -0.000000
 
 ------------------------------------------------------------------------------
                       dipole moment  
 ------------------------------------------------------------------------------
   x      14.187988     -14.123699       0.064289
   y    -166.620196     166.545548      -0.074648
   z      -0.000000      -0.000000      -0.000000
 
   | dipole moment | =     0.0985 a.u. =     0.2504 debye 
 
 ------------------------------------------------------------------------------
                     quadrupole moment
 ------------------------------------------------------------------------------
  xx   18988.853285  -19202.562768    -213.709483
  yy    6398.578484   -6781.164688    -382.586204
  zz   18517.304462  -18730.766763    -213.462301
  xy    -194.324126     192.209665      -2.114461
  xz       0.000000      -0.000000      -0.000000
  yz       0.000000       0.000000       0.000000
 
     1/3  trace=    -269.919329
     anisotropy=     169.040126
 
 ==============================================================================
 

    ridft profiling
  --------------------------------------------------------------------
             module   cpu total (s)       %  wall total (s)       %

               RIDFT         15709.8  100.00         15820.6  100.00
         Ridft_b_scf           301.8    1.92           302.2    1.91
        b_scf_prelim             0.0    0.00             0.0    0.00
        b_scf_molinp             0.0    0.00             0.0    0.00
         b_scf_init0             0.0    0.00             0.0    0.00
        b_scf_auxbas             0.0    0.00             0.0    0.00
      b_scf_symmetry             0.0    0.00             0.0    0.00
         b_scf_cosmo             0.0    0.00             0.0    0.00
        b_scf_params            39.5    0.25            39.5    0.25
          b_scf_ri-j            95.3    0.61            95.3    0.60
    b_scf_ri-j_auxpq            95.1    0.61            95.2    0.60
     ri-j_auxpq_chol             5.2    0.03             5.2    0.03
         b_scf_1elec            14.8    0.09            14.8    0.09
       b_scf_moinput           152.2    0.97           152.4    0.96
     moinput_orthmos           150.8    0.96           151.0    0.95
    b_scf_dft-dstmax             0.0    0.00             0.0    0.00
           Ridft_scf         15402.9   98.05         15513.4   98.06
          Scf_b_loop             0.0    0.00             0.4    0.00
                noga             0.0    0.00             0.0    0.00
            Scf_loop         15385.8   97.94         15491.3   97.92
     scf_loop_mkdmat            63.5    0.40            63.9    0.40
       scf_loop_ri-j          3309.9   21.07          3311.6   20.93
      parlp1.bc.dens             4.0    0.03             4.0    0.03
        parlp1.gs.gp            70.7    0.45            70.7    0.45
        parlp2.bc.gq             0.0    0.00             0.0    0.00
        scf_loop_dft          9790.1   62.32          9802.2   61.96
      pardft.bc.dens             0.0    0.00             0.0    0.00
        dft_grid_con            11.3    0.07            11.3    0.07
          dft_xcmrhf          9742.5   62.02          9754.5   61.66
          dft_getval           123.4    0.79           123.5    0.78
          funct2 dst             1.7    0.01             1.7    0.01
      funct2 f2loop1            18.8    0.12            18.9    0.12
      funct2 f2loop2            47.9    0.30            48.0    0.30
          funct2 s+c            53.2    0.34            53.3    0.34
        funct2 cmf_2            47.7    0.30            47.8    0.30
          dft_mkdens          4187.6   26.66          4193.1   26.50
        dft_mgga-fun             3.3    0.02             3.3    0.02
          dft_mkfock          5426.5   34.54          5433.1   34.34
     pardft.red.fock           693.3    4.41           694.2    4.39
     scf_loop_energy             0.4    0.00             0.4    0.00
     scf_loop_mkfock             0.8    0.00             0.8    0.00
       scf_loop_diis           740.4    4.71           741.3    4.69
       scf_loop_diag           996.7    6.34           998.2    6.31
         diag_tritrn           417.2    2.66           417.8    2.64
          diag_rdiag           577.9    3.68           578.8    3.66
     scf_loop_modump           267.3    1.70           355.8    2.25
      scf_loop_ortho           205.9    1.31           206.2    1.30
          Scf_a_loop            17.1    0.11            21.7    0.14
         Ridft_a_scf             5.1    0.03             5.1    0.03
         a_scf_fanal             5.0    0.03             5.0    0.03
 


    ------------------------------------------------------------------------
         total  cpu-time :  4 hours 22 minutes and 20 seconds
         total wall-time :  4 hours 24 minutes and 11 seconds
    ------------------------------------------------------------------------


   ****  ridft : all done  ****


    2016-02-16 07:54:43.692 

