
   OpenMP run-time library returned nthreads = 28

 ricc2 (c-13-33) : TURBOMOLE V7.3 ( 22142 ) 4 Jul 2018 at 18:12:42
 Copyright (C) 2018 TURBOMOLE GmbH, Karlsruhe


    2019-04-01 22:53:35.616 



                              R I C C 2 - PROGRAM

                          the quantum chemistry groups
                             at the universities in
                           Karlsruhe, Bochum & Mainz
                                   Germany



   *-----------------------------------------------------------------------*
   |                     program will use 28 thread(s)                     |
   *-----------------------------------------------------------------------*


              +--------------------------------------------------+
              | Atomic coordinate, charge and isotop information |
              +--------------------------------------------------+

                    atomic coordinates            atom    charge  isotop
         -2.13914195   -0.72550093    9.55439157    c      6.000     0
         -2.76867492   -0.27820537    7.64088444    h      1.000     0
         -3.65997162   -1.75180829   10.48600105    h      1.000     0
          0.34321449   -2.22886294    9.46413599    c      6.000     0
          0.43759675   -3.47181649    7.82738027    h      1.000     0
          0.49493610   -3.42195596   11.13538199    h      1.000     0
          2.47731098   -0.22063997    9.46526244    c      6.000     0
          3.65133160   -0.33530638    7.77986556    h      1.000     0
          3.71963487   -0.50387787   11.08174395    h      1.000     0
          1.13527780    2.35254105    9.66910122    c      6.000     0
          0.79538566    3.12447865    7.78693564    h      1.000     0
          2.23204453    3.74036254   10.71973843    h      1.000     0
         -1.40083381    1.72047974   10.89706767    c      6.000     0
         -2.79860482    3.21810994   10.69887074    h      1.000     0
         -1.13619669    1.35833253   12.91255311    h      1.000     0
 
       center of nuclear mass  :    0.08511757    0.17791154    9.80955254
       center of nuclear charge:    0.08656116    0.17666037    9.80922771

              +--------------------------------------------------+
              |               basis set information              |
              +--------------------------------------------------+

              we will work with the 1s 3p 5d 7f 9g ... basis set
              ...i.e. with spherical basis functions...

   type   atoms  prim   cont   basis
   ---------------------------------------------------------------------------
    c        5     77     55   cc-pVQZ   [5s4p3d2f1g|21s6p3d2f1g]
    h       10     32     30   cc-pVQZ   [4s3p2d1f|6s3p2d1f]
   ---------------------------------------------------------------------------
   total:   15    705    575
   ---------------------------------------------------------------------------

   total number of primitive shells          :   45
   total number of contracted shells         :  175
   total number of cartesian basis functions :  700
   total number of SCF-basis functions       :  575


 symmetry group of the molecule :   c1 

 the group has the following generators :
   c1(z)

    1 symmetry operations found

 there are 1 real representations :   a   


   =========================================================================


     restricted closed shell calculation for the wavefunction models:
               MP2        - Second Order Moeller Plesset PT


     global parameters for ricc2 program:

        hard restart (reuse of interm.) :  disabled
        soft restart (reuse of vectors) :  disabled
        threshold for vector function   :    0.100000E-05
        convergence threshold energy    :    0.100000E-06
        linear dependence threshold     :    0.100000E-13
        global print level              :      1
        maximum number of iterations    :   300
        maximum number DIIS vectors     :    10
        max. dim. of reduced space      :   100
        core memory limit (MB)          : *****


     MP2 energy only: Energy will be calculated directly from T2 amplitudes!

     Scratch Directory : 


   =========================================================================

    der. integral neglect threshold  :  0.10E-07
    integral neglect threshold       :  0.48E-11
    integral storage threshold THIZE :  0.10E-04
    integral storage threshold THIME :         5


                  +------------------------------------------+
                  |     Auxiliary basis set information      |
                  +------------------------------------------+

              we will work with the 1s 3p 5d 7f 9g ... basis set
              ...i.e. with spherical basis functions...

   type   atoms  prim   cont   basis
   ---------------------------------------------------------------------------
    c        5    132    132   cc-pVQZ   [8s7p6d5f3g1h|8s7p6d5f3g1h]
    h       10     55     55   cc-pVQZ   [5s4p3d2f1g|5s4p3d2f1g]
   ---------------------------------------------------------------------------
   total:   15   1210   1210
   ---------------------------------------------------------------------------

   total number of primitive shells          :   45
   total number of contracted shells         :  300
   total number of cartesian basis functions : 1605
   total number of SCF-basis functions       : 1210


 maximum number of shells which are related by symmetry :  1


 The symmetry information takes   1 MB

*---------------------------------------------------------------------*
|               simplified C1 algorithm will be applied               |
*---------------------------------------------------------------------*
  MOs are in ASCII format !


 reading orbital data $scfmo  from file mos
 orbital characterization : scfconv=9



              +--------------------------------------------+
              | list of orbitals that will be kept frozen: |
              +--------------------------------------------+
              |   irrep   index      energy     occ/vir    |
              +--------------------------------------------+
              |   a         1      -11.2094     occupied   |
              |   a         2      -11.2090     occupied   |
              |   a         3      -11.2090     occupied   |
              |   a         4      -11.2083     occupied   |
              |   a         5      -11.2082     occupied   |
              +--------------------------------------------+



   Molecular Orbital Statistic:
   ============================

   -----------------------------
   orbitals in total:
   -----------------------------
    frozen occupied :      5
    active occupied :     15
    active virtual  :    555
    frozen virtual  :      0
    all together    :    575
   -----------------------------


     time in riccmos       cpu:  6.91 sec    wall:  0.44 sec    ratio: 15.9

     total memory allocated for calculation of (Q|P)**(-1/2) : 17 MiB


     calculation of (P|Q) ...
     time in lp2sym        cpu:  1.88 sec    wall:  0.07 sec    ratio: 28.0


     calculation of the Cholesky decomposition of (P|Q)**(-1) ...
     time in invmetri      cpu:  5.74 sec    wall:  0.21 sec    ratio: 27.9

   threshold for RMS(d[D]) in SCF was     :  0.10E-06
   integral neglect threshold             :  0.48E-11
   derivative integral neglect threshold  :  0.10E-07


   =========================================================================

     Energy of reference wave function is  -195.2412987175000
     Maximum orbital residual is           0.4382604422361E-07


     Number of symmetry-nonredundant auxiliary basis functions:     1210

     Block lengths for integral files:
        frozen occupied (BOI):        1 MiB
        active occupied (BJI):        1 MiB
        active virtual  (BAI):        6 MiB
        frozen virtual  (BGI):        0 MiB
               general  (BTI):        6 MiB

   =========================================================================




   **************************************************************************
   *                                                                        *
   *          OPTIMIZATION OF THE GROUND STATE CLUSTER AMPLITUDES           *
   *                                                                        *
   **************************************************************************


   Iter.   MP2 energy       Norm(Omega)   Norm(t1)  Norm(t2)     cpu    wall
   ...........................................................................
    1   -196.1618799832     ------          0.00000   0.32036    0.65    0.02
   ...........................................................................


     time in total         cpu: 39.02 sec    wall:  1.44 sec    ratio: 27.1


     **********************************************************************
     *                                                                    *
     *   RHF  energy                             :   -195.2412987175      *
     *   MP2 correlation energy (doubles)        :     -0.9205812657      *
     *                                                                    *
     *   Final MP2 energy                        :   -196.1618799832      *
     *                                                                    *
     *    E(S)   =     -0.6184186388      E(T)   =     -0.3021626269      *
     *    E(OS)  =     -0.7191395144      E(SS)  =     -0.2014417513      *
     *                                                                    *
     *   SCS-MP2 energy                          :   -196.1714133853      *
     *   (computed with  C(OS) =   1.2000  and  C(SS) =   0.3333)         *
     *                                                                    *
     *   SOS-MP2 energy                          :   -196.1761800863      *
     *   (computed with  C(OS) =   1.3000)                                *
     *                                                                    *
     *   Norm of MP1 T2 amplitudes               :      0.3203643688      *
     *                                                                    *
     **********************************************************************



    ------------------------------------------------------------------------
         total  cpu-time :  1 minutes and 51 seconds
         total wall-time :   4.54 seconds
    ------------------------------------------------------------------------

   ****  ricc2 : all done  ****


    2019-04-01 22:53:40.084 

