           Doing BLAS/Lapack in the master proc. with 16 CPUs.
           SMPCPUS    set: Shared-memory Parallelization with  28 CPUs.

           SMP Parallelization Reference:
           C. van Wullen, J. Comput. Chem. 32 (2011) 1195--1201
 operating system is UNIX !

 dscf (c-19-412.gp.local) : TURBOMOLE V7.2 ( 21454 ) 4 Oct 2017 at 12:48:15
 Copyright (C) 2017 TURBOMOLE GmbH, Karlsruhe


    2018-07-03 16:02:47.191 



                             d s c f - program

                   idea & directorship : reinhart ahlrichs
                   program development : marco haeser
                                         michael baer
                           dft version : oliver treutler


                          quantum chemistry group
                          universitaet  karlsruhe
                                  germany




                          References             
                                                 
          TURBOMOLE:                             
              R. Ahlrichs, M. Baer, M. Haeser, H. Horn, and
              C. Koelmel
              Electronic structure calculations on workstation
              computers: the program system TURBOMOLE
              Chem. Phys. Lett. 162: 165 (1989)
          Density Functional:                              
              O. Treutler and R. Ahlrichs                      
              Efficient Molecular Numerical Integration Schemes
              J. Chem. Phys. 102: 346 (1995)                   
          Parallel Version:                                
              Performance of parallel TURBOMOLE for Density    
              Functional Calculations                          
              M. v. Arnim and R. Ahlrichs                      
              J. Comp. Chem. 19: 1746 (1998)                   
                                         



 UHF mode switched on !


              +--------------------------------------------------+
              | Atomic coordinate, charge and isotop information |
              +--------------------------------------------------+

                    atomic coordinates            atom    charge  isotop
          5.14667671    3.54004493  -14.14371524    c      6.000     0
          5.32102049    1.40053156  -15.66646165    c      6.000     0
          4.82182134   -0.96133674  -14.61941066    c      6.000     0
          4.21504164   -1.09832343  -12.05418067    c      6.000     0
          4.09211796    0.95005586  -10.56414609    n      7.000     0
          4.51448159    3.22639040  -11.60111801    c      6.000     0
          3.54900230   -3.63323360  -10.91837712    c      6.000     0
          3.27285014   -5.51884397  -12.25164808    o      8.000     0
          4.16005418    5.53915232   -9.96045643    c      6.000     0
          4.30924051    7.68546303  -10.84363884    o      8.000     0
          3.26706030   -3.57192577   -8.36156350    n      7.000     0
          2.32117110   -5.56063226   -6.81748226    c      6.000     0
         -0.14334892   -6.47149550   -7.15713417    c      6.000     0
         -1.05164951   -8.29518068   -5.46988695    c      6.000     0
          0.38779124   -9.20167882   -3.45427491    c      6.000     0
          2.84845142   -8.26092913   -3.18798793    c      6.000     0
          3.85292432   -6.47861108   -4.85080877    c      6.000     0
         -0.68067292  -11.09730479   -1.51853186    c      6.000     0
         -3.08615532  -12.41857579   -2.53967791    c      6.000     0
         -4.08792816  -14.45672949   -0.74238536    c      6.000     0
         -2.09644377  -16.50435215   -0.27619940    c      6.000     0
          0.34406575  -15.31263664    0.72231294    c      6.000     0
          1.29420470  -13.21335614   -1.03861212    c      6.000     0
         -1.70348696  -17.49555833   -2.05947915    h      1.000     0
         -2.80715692  -17.91931234    1.05950084    h      1.000     0
         -1.29897109   -9.58109293    0.89325367    c      6.000     0
         -3.50692637   -8.12894148    1.02626808    c      6.000     0
         -4.11820523   -6.68467072    3.14402015    c      6.000     0
         -2.42396687   -6.64110092    5.19279945    c      6.000     0
         -0.18030695   -8.05783612    5.12716797    c      6.000     0
          0.32323751   -9.51093798    2.97317136    c      6.000     0
         -6.55715381   -5.21835718    3.25568895    c      6.000     0
         -2.92701554   -4.95668960    7.22369686    n      7.000     0
         -3.07391163   -5.55636064    9.72261588    c      6.000     0
         -3.04897188   -7.71284102   10.59205749    o      8.000     0
          1.69319054   -7.98224372    7.26418237    c      6.000     0
         -1.80964091   -5.49144120   -9.24177712    c      6.000     0
          6.52260753   -5.52903661   -4.54960948    c      6.000     0
         -3.21949055   -3.26708541   11.42436399    c      6.000     0
         -2.99927210   -0.97449915   10.36245380    n      7.000     0
         -2.93806737    1.05827357   11.87757776    c      6.000     0
         -3.15327443    0.88801779   14.50276166    c      6.000     0
         -3.44634316   -1.49225326   15.58515614    c      6.000     0
         -3.45950125   -3.61493530   14.02926223    c      6.000     0
         -2.49671898    3.61284852   10.68108222    c      6.000     0
         -2.04020069    5.49110586   11.97382576    o      8.000     0
          3.62625389    4.96731161   -7.51061316    n      7.000     0
          2.82974022    6.66669126   -5.58702523    c      6.000     0
          0.60013874    8.07539155   -5.86054627    c      6.000     0
         -0.22693463    9.53210180   -3.80678686    c      6.000     0
          1.06511471    9.59870987   -1.50816208    c      6.000     0
          3.28482290    8.16850710   -1.31126205    c      6.000     0
          4.21078254    6.72851608   -3.31319925    c      6.000     0
          0.13722007   11.16050956    0.76964765    c      6.000     0
         -2.09575883   12.90367228    0.04497224    c      6.000     0
         -2.92573797   14.61041078    2.23514864    c      6.000     0
         -0.74149873   16.27987161    3.14450989    c      6.000     0
          1.55690398   14.65955726    3.83573262    c      6.000     0
          2.31581892   12.92999106    1.63823009    c      6.000     0
         -0.21813956   17.60246383    1.63134839    h      1.000     0
         -1.33323428   17.42192668    4.76821141    h      1.000     0
         -0.63428758    9.27734867    2.85341072    c      6.000     0
         -3.08513598    8.28442857    2.95968562    c      6.000     0
         -3.78870475    6.46715487    4.73861106    c      6.000     0
         -1.96398152    5.58478836    6.45263702    c      6.000     0
          0.50616941    6.55121187    6.42503997    c      6.000     0
          1.10676604    8.39701674    4.63198476    c      6.000     0
         -6.44613121    5.44266824    4.81124397    c      6.000     0
         -2.62529819    3.57596021    8.11158118    n      7.000     0
          2.48929043    5.60872029    8.23089049    c      6.000     0
         -0.92431659    7.99111983   -8.25944144    c      6.000     0
          6.65304178    5.28449017   -3.06803085    c      6.000     0
         -3.08130893   -3.08174123    6.78854305    h      1.000     0
          3.63614623   -1.88472427   -7.50479014    h      1.000     0
         -4.81277132   -8.10915411   -0.55712644    h      1.000     0
          2.06901726  -10.58806673    2.95011138    h      1.000     0
         -2.96530127   -8.97377950   -5.75306626    h      1.000     0
          4.03132173   -8.91329737   -1.64044260    h      1.000     0
         -7.63610730   -5.72795034    4.94785824    h      1.000     0
         -7.71529580   -5.60981215    1.59072252    h      1.000     0
         -6.22070449   -3.17742241    3.35010158    h      1.000     0
          2.01804654   -6.03702029    7.89743390    h      1.000     0
          3.49851184   -8.79534586    6.67335957    h      1.000     0
          0.98065978   -9.03289878    8.89871062    h      1.000     0
          7.47678574   -6.51096466   -3.00233587    h      1.000     0
          6.56951089   -3.49352637   -4.15857145    h      1.000     0
          7.60546060   -5.82802852   -6.28783104    h      1.000     0
         -1.18973838   -6.22387675  -11.07543608    h      1.000     0
         -3.77341222   -6.04959888   -8.92485403    h      1.000     0
         -1.71792125   -3.42586626   -9.35485430    h      1.000     0
         -4.58022497  -11.04153291   -2.91607395    h      1.000     0
         -2.60587013  -13.28171855   -4.36548042    h      1.000     0
         -4.61778158  -13.58043018    1.06246070    h      1.000     0
         -5.80981647  -15.28712385   -1.53967149    h      1.000     0
         -0.00746646  -14.53519289    2.61132952    h      1.000     0
          1.82327498  -16.74930443    0.92816980    h      1.000     0
          1.76371684  -14.02650473   -2.88850556    h      1.000     0
          3.05559590  -12.42248484   -0.30086481    h      1.000     0
         -3.62230026   -5.52334920   14.75807299    h      1.000     0
         -3.63154268   -1.69345630   17.61946801    h      1.000     0
          4.86527940   -2.69174165  -15.71588998    h      1.000     0
          5.81197016    1.57471484  -17.65126808    h      1.000     0
         -3.11522537    1.89271706    7.31067127    h      1.000     0
          3.64649193    3.09193882   -7.05364663    h      1.000     0
         -4.51185807    8.92521939    1.63068844    h      1.000     0
          3.02384976    9.12781511    4.63546985    h      1.000     0
         -1.95793928   10.60556025   -4.04510931    h      1.000     0
          4.33652129    8.16081238    0.45158770    h      1.000     0
         -6.48951537    3.42647949    4.32985495    h      1.000     0
         -7.25485981    5.62677920    6.70787321    h      1.000     0
         -7.65532108    6.45558967    3.47666215    h      1.000     0
          2.46992158    3.54078487    8.34052076    h      1.000     0
          4.36803339    6.22213249    7.62932452    h      1.000     0
          2.13037432    6.31675561   10.14278302    h      1.000     0
          6.36322741    3.24498674   -3.26933492    h      1.000     0
          7.52478546    5.63921615   -1.22855371    h      1.000     0
          7.98293883    5.85039408   -4.55018136    h      1.000     0
         -1.14438538    6.04347453   -8.92821189    h      1.000     0
         -2.80032017    8.80195933   -7.95664760    h      1.000     0
          0.02978004    9.03909323   -9.76721034    h      1.000     0
         -3.70719337   11.80155641   -0.63909161    h      1.000     0
         -1.48024203   14.08710275   -1.54422614    h      1.000     0
         -3.59837655   13.43790672    3.80742920    h      1.000     0
         -4.52380712   15.78114838    1.62724888    h      1.000     0
          1.10816727   13.50694856    5.49975529    h      1.000     0
          3.16297180   15.86389449    4.34841710    h      1.000     0
          2.84763836   14.08063173   -0.00318411    h      1.000     0
          3.99578750   11.83227869    2.13423934    h      1.000     0
         -3.06642707    2.60778913   15.61349654    h      1.000     0
          5.45415690    5.43690089  -14.85593063    h      1.000     0
         -1.46662525   -0.06442068    2.06439102    c      6.000     0
         -1.59632650    2.16336804    0.39930505    c      6.000     0
         -0.19363950    2.30583203   -1.71543619    c      6.000     0
          1.52635518    0.22771894   -2.41334901    c      6.000     0
          1.65549540   -1.99789844   -0.74698963    c      6.000     0
          0.25705741   -2.13704040    1.36817250    c      6.000     0
         -2.79570777   -0.20060323    3.98988476    o      8.000     0
          2.85725861    0.34983714   -4.33680007    o      8.000     0
         -2.84324142    3.68069157    0.98219927    h      1.000     0
         -0.24492477    3.93635118   -2.95961561    h      1.000     0
          2.90154268   -3.51463139   -1.32887612    h      1.000     0
          0.31071257   -3.76795585    2.61066617    h      1.000     0
 
       center of nuclear mass  :    0.09697857    0.00391994   -0.05895140
       center of nuclear charge:    0.08416274    0.00338007   -0.05079791

              +--------------------------------------------------+
              |               basis set information              |
              +--------------------------------------------------+

              we will work with the 1s 3p 5d 7f 9g ... basis set
              ...i.e. with spherical basis functions...

   type   atoms  prim   cont   basis
   ---------------------------------------------------------------------------
    c       64     77     55   cc-pVQZ   [5s4p3d2f1g|21s6p3d2f1g]
    n        6     77     55   cc-pVQZ   [5s4p3d2f1g|21s6p3d2f1g]
    o        6     77     55   cc-pVQZ   [5s4p3d2f1g|21s6p3d2f1g]
    h       66     32     30   cc-pVQZ   [4s3p2d1f|6s3p2d1f]
   ---------------------------------------------------------------------------
   total:  142   7964   6160
   ---------------------------------------------------------------------------

   total number of primitive shells          :  111
   total number of contracted shells         : 1800
   total number of cartesian basis functions : 7630
   total number of SCF-basis functions       : 6160


 integral neglect threshold       :  0.44E-12
 integral storage threshold THIZE :  0.10E-04
 integral storage threshold THIME :         5


 DENSITY CONVERGENCE CHECK SWITCHED ON !
 SCF CONVERGENCE IF RMS(delta[D]) <     0.1000000000E-06


 symmetry group of the molecule :   c1 

 the group has the following generators :
   c1(z)

    1 symmetry operations found

 there are 1 real representations :   a   

 maximum number of shells which are related by symmetry :  1


    mo occupation :
   irrep   mo's   occupied
    a     6160      271
 
 number of basis functions   :                   6160
 number of occupied orbitals :                    271
 

 automatic virtual orbital shift switched on 
      shift if e(lumo)-e(homo) < 0.10000000    


          ------------------------
          nuclear repulsion energy  :   12927.9606656    
          ------------------------


         -----------------
         -S,T+V- integrals
         -----------------

 1e-integrals will be neglected if expon. factor < 0.438003E-13
 
   Difference densities algorithm switched on.
   The maximal number of linear combinations of
   difference densities is                    20 .

 DIIS switched on: error vector is FDS-SDF
 Max. Iterations for DIIS is     :   5
 DIIS matrix (see manual) 
    Scaling factor of diagonals  :  1.200
    threshold for scaling factor :  0.000

 scf convergence criterion : increment of total energy < .1000000D-06
                  and increment of one-electron energy < .1000000D-03

  MOs are in ASCII format !


 reading orbital data $uhfmo_alpha  from file alpha
 orbital characterization : expanded

 reading orbital data $uhfmo_beta  from file beta
 orbital characterization : expanded
 mo provided and orthogonalized by Cholesky decomposition
 mo provided and orthogonalized by Cholesky decomposition

 DSCF restart information will be dumped onto file alpha

 
                                              current damping :  0.300
 ITERATION  ENERGY          1e-ENERGY        2e-ENERGY     RMS[dD(SAO)]   TOL
   1  -3226.5367255531    -30089.902763     13935.405372    0.000D+00 0.437D-12
          max. resid. norm for Fia-block=  3.647D-01 for orbital    162a    alpha
          max. resid. fock norm         =  8.028D+00 for orbital   5390a    beta 
          irrep a   : virtual orbitals shifted by    0.28637
          Delta Eig. =   884.5708782560 eV 
 
                                              current damping :  0.250
 ITERATION  ENERGY          1e-ENERGY        2e-ENERGY     RMS[dD(SAO)]   TOL
   2  -3237.1089951185    -30163.295123     13998.225462    0.837D-02 0.433D-12
          Norm of current diis error:  6.0685    
          max. resid. norm for Fia-block=  1.942D-01 for orbital    269a    alpha
          max. resid. fock norm         =  5.275D-01 for orbital   5903a    alpha
          irrep a   : virtual orbitals shifted by    0.02163
          Delta Eig. =   194.3878120127 eV 
 
                                              current damping :  0.150
 ITERATION  ENERGY          1e-ENERGY        2e-ENERGY     RMS[dD(SAO)]   TOL
   3  -3238.5575418343    -30180.110334     14013.592126    0.167D-02 0.253D-12
          Norm of current diis error:  2.3674    
          max. resid. norm for Fia-block=  1.397D-01 for orbital    264a    beta 
          max. resid. fock norm         =  1.826D-01 for orbital   5868a    beta 
          irrep a   : virtual orbitals shifted by    0.05965
          Delta Eig. =    53.8657310201 eV 
 
                                              current damping :  0.100
 ITERATION  ENERGY          1e-ENERGY        2e-ENERGY     RMS[dD(SAO)]   TOL
   4  -3238.9579812444    -30180.664110     14013.745463    0.551D-03 0.212D-12
          Norm of current diis error:  1.0832    
          max. resid. norm for Fia-block=  5.399D-02 for orbital    268a    beta 
          max. resid. fock norm         =  1.139D-01 for orbital   6034a    alpha
          Delta Eig. =     6.3158734314 eV 
 
                                              current damping :  0.100
 ITERATION  ENERGY          1e-ENERGY        2e-ENERGY     RMS[dD(SAO)]   TOL
   5  -3239.0582978269    -30183.432239     14016.413275    0.217D-03 0.195D-12
          Norm of current diis error: 0.38867    
          max. resid. norm for Fia-block=  3.374D-02 for orbital    268a    beta 
          max. resid. fock norm         =  5.545D-02 for orbital    270a    beta 
 mo-orthogonalization: Cholesky decomposition
          Delta Eig. =     2.0201071151 eV 
 
                                              current damping :  0.100
 ITERATION  ENERGY          1e-ENERGY        2e-ENERGY     RMS[dD(SAO)]   TOL
   6  -3239.0751040495    -30183.565023     14016.529254    0.799D-04 0.183D-12
          Norm of current diis error: 0.18727    
          max. resid. norm for Fia-block=  1.338D-02 for orbital    268a    beta 
          max. resid. fock norm         =  2.398D-02 for orbital    270a    beta 
          Delta Eig. =     0.6861781300 eV 
 
                                              current damping :  0.100
 ITERATION  ENERGY          1e-ENERGY        2e-ENERGY     RMS[dD(SAO)]   TOL
   7  -3239.0790257984    -30183.810150     14016.770458    0.355D-04 0.175D-12
          Norm of current diis error: 0.94020E-01
          max. resid. norm for Fia-block=  9.023D-03 for orbital    166a    beta 
          max. resid. fock norm         =  1.152D-02 for orbital    271a    beta 
          Delta Eig. =     0.1976128139 eV 
 
                                              current damping :  0.150
 ITERATION  ENERGY          1e-ENERGY        2e-ENERGY     RMS[dD(SAO)]   TOL
   8  -3239.0802321709    -30183.808274     14016.767376    0.155D-04 0.167D-12
          Norm of current diis error: 0.50207E-01
          max. resid. norm for Fia-block=  7.106D-03 for orbital    168a    beta 
          max. resid. fock norm         =  8.843D-03 for orbital    271a    beta 
          Delta Eig. =     0.0801718052 eV 
 
                                              current damping :  0.200
 ITERATION  ENERGY          1e-ENERGY        2e-ENERGY     RMS[dD(SAO)]   TOL
   9  -3239.0807831857    -30183.848415     14016.806966    0.794D-05 0.160D-12
          Norm of current diis error: 0.39001E-01
          max. resid. norm for Fia-block=  7.214D-03 for orbital    168a    beta 
          max. resid. fock norm         =  8.755D-03 for orbital    271a    beta 
          Delta Eig. =     0.0312639311 eV 
 
                                              current damping :  0.250
 ITERATION  ENERGY          1e-ENERGY        2e-ENERGY     RMS[dD(SAO)]   TOL
  10  -3239.0812406095    -30183.837436     14016.795529    0.577D-05 0.151D-12
          Norm of current diis error: 0.36415E-01
          max. resid. norm for Fia-block=  6.570D-03 for orbital    168a    beta 
          max. resid. fock norm         =  8.141D-03 for orbital    271a    beta 
 mo-orthogonalization: Cholesky decomposition
          Delta Eig. =     0.0221073672 eV 
 
                                              current damping :  0.300
 ITERATION  ENERGY          1e-ENERGY        2e-ENERGY     RMS[dD(SAO)]   TOL
  11  -3239.0816473591    -30183.853150     14016.810837    0.501D-05 0.140D-12
          Norm of current diis error: 0.36894E-01
          max. resid. norm for Fia-block=  3.978D-03 for orbital    168a    beta 
          max. resid. fock norm         =  5.332D-03 for orbital    271a    beta 
          Delta Eig. =     0.0175930521 eV 
 
                                              current damping :  0.350
 ITERATION  ENERGY          1e-ENERGY        2e-ENERGY     RMS[dD(SAO)]   TOL
  12  -3239.0819098423    -30183.851682     14016.809106    0.312D-05 0.131D-12
          Norm of current diis error: 0.37790E-01
          max. resid. norm for Fia-block=  1.633D-03 for orbital    269a    beta 
          max. resid. fock norm         =  2.067D-03 for orbital    271a    beta 
          Delta Eig. =     0.0101304675 eV 
 
                                              current damping :  0.400
 ITERATION  ENERGY          1e-ENERGY        2e-ENERGY     RMS[dD(SAO)]   TOL
  13  -3239.0820084239    -30183.851898     14016.809224    0.121D-05 0.127D-12
          Norm of current diis error: 0.38260E-01
          max. resid. norm for Fia-block=  1.530D-04 for orbital    168a    beta 
          max. resid. fock norm         =  2.060D-04 for orbital    271a    beta 
          Delta Eig. =     0.0018856208 eV 
 
                                              current damping :  0.450
 ITERATION  ENERGY          1e-ENERGY        2e-ENERGY     RMS[dD(SAO)]   TOL
  14  -3239.0820043446    -30183.851529     14016.808859    0.155D-06 0.126D-12
          Norm of current diis error: 0.38326E-01
          max. resid. norm for Fia-block=  1.801D-03 for orbital    168a    beta 
          max. resid. fock norm         =  2.387D-03 for orbital    271a    beta 
          Delta Eig. =     0.0061274501 eV 
 
                                              current damping :  0.500
 ITERATION  ENERGY          1e-ENERGY        2e-ENERGY     RMS[dD(SAO)]   TOL
  15  -3239.0821136614    -30183.854252     14016.811473    0.126D-05 0.122D-12
          Norm of current diis error: 0.38666E-01
          max. resid. norm for Fia-block=  3.613D-03 for orbital    269a    beta 
          max. resid. fock norm         =  4.853D-03 for orbital    271a    beta 
 mo-orthogonalization: Cholesky decomposition
          Delta Eig. =     0.0135793759 eV 
 
                                              current damping :  0.350
 ITERATION  ENERGY          1e-ENERGY        2e-ENERGY     RMS[dD(SAO)]   TOL
  16  -3239.0823318927    -30183.855108     14016.812111    0.248D-05 0.108D-12
          Norm of current diis error: 0.39466E-01
          max. resid. norm for Fia-block=  3.079D-03 for orbital    269a    beta 
          max. resid. fock norm         =  4.063D-03 for orbital    271a    beta 
          Delta Eig. =     0.0141563560 eV 
 
                                              current damping :  0.200
 ITERATION  ENERGY          1e-ENERGY        2e-ENERGY     RMS[dD(SAO)]   TOL
  17  -3239.0825394652    -30183.857392     14016.814187    0.233D-05 0.930D-13
          Norm of current diis error: 0.40273E-01
          max. resid. norm for Fia-block=  1.361D-03 for orbital    269a    beta 
          max. resid. fock norm         =  1.761D-03 for orbital    271a    beta 
          Delta Eig. =     0.0075344126 eV 
 
                                              current damping :  0.100
 ITERATION  ENERGY          1e-ENERGY        2e-ENERGY     RMS[dD(SAO)]   TOL
  18  -3239.0826423377    -30183.858188     14016.814880    0.114D-05 0.870D-13
          Norm of current diis error: 0.40692E-01
          max. resid. norm for Fia-block=  1.358D-03 for orbital    269a    beta 
          max. resid. fock norm         =  1.754D-03 for orbital    271a    beta 
          Delta Eig. =     0.0083644133 eV 
 
                                              current damping :  0.100
 ITERATION  ENERGY          1e-ENERGY        2e-ENERGY     RMS[dD(SAO)]   TOL
  19  -3239.0827554200    -30183.858855     14016.815434    0.124D-05 0.810D-13
          Norm of current diis error: 0.41147E-01
          max. resid. norm for Fia-block=  2.148D-03 for orbital    269a    beta 
          max. resid. fock norm         =  2.794D-03 for orbital    271a    beta 
          Delta Eig. =     0.0129268235 eV 
 
                                              current damping :  0.100
 ITERATION  ENERGY          1e-ENERGY        2e-ENERGY     RMS[dD(SAO)]   TOL
  20  -3239.0829384042    -30183.860105     14016.816501    0.197D-05 0.732D-13
          Norm of current diis error: 0.41860E-01
          max. resid. norm for Fia-block=  2.426D-03 for orbital    269a    beta 
          max. resid. fock norm         =  3.141D-03 for orbital    271a    beta 
 mo-orthogonalization: Cholesky decomposition
          Delta Eig. =     0.0148594621 eV 
 
                                              current damping :  0.100
 ITERATION  ENERGY          1e-ENERGY        2e-ENERGY     RMS[dD(SAO)]   TOL
  21  -3239.0831481158    -30183.862006     14016.818192    0.222D-05 0.664D-13
          Norm of current diis error: 0.42671E-01
          max. resid. norm for Fia-block=  1.807D-03 for orbital    269a    beta 
          max. resid. fock norm         =  2.324D-03 for orbital    271a    beta 
          Delta Eig. =     0.0113078349 eV 
 
                                              current damping :  0.100
 ITERATION  ENERGY          1e-ENERGY        2e-ENERGY     RMS[dD(SAO)]   TOL
  22  -3239.0833059038    -30183.863056     14016.819085    0.165D-05 0.437D-12
          Norm of current diis error: 0.43279E-01
          max. resid. norm for Fia-block=  1.621D-03 for orbital    269a    beta 
          max. resid. fock norm         =  2.068D-03 for orbital    271a    beta 
          Delta Eig. =     0.0105673877 eV 
 
                                              current damping :  0.100
 ITERATION  ENERGY          1e-ENERGY        2e-ENERGY     RMS[dD(SAO)]   TOL
  23  -3239.0834484672    -30183.864111     14016.819997    0.147D-05 0.277D-12
          Norm of current diis error: 0.43829E-01
          max. resid. norm for Fia-block=  2.090D-03 for orbital    269a    beta 
          max. resid. fock norm         =  2.659D-03 for orbital    271a    beta 
          Delta Eig. =     0.0137988703 eV 
 
                                              current damping :  0.100
 ITERATION  ENERGY          1e-ENERGY        2e-ENERGY     RMS[dD(SAO)]   TOL
  24  -3239.0836346510    -30183.865498     14016.821197    0.189D-05 0.172D-12
          Norm of current diis error: 0.44537E-01
          max. resid. norm for Fia-block=  2.316D-03 for orbital    269a    beta 
          max. resid. fock norm         =  2.944D-03 for orbital    271a    beta 
          Delta Eig. =     0.0153147562 eV 
 
                                              current damping :  0.100
 ITERATION  ENERGY          1e-ENERGY        2e-ENERGY     RMS[dD(SAO)]   TOL
  25  -3239.0838444361    -30183.867004     14016.822494    0.209D-05 0.130D-12
          Norm of current diis error: 0.45320E-01
          max. resid. norm for Fia-block=  2.133D-03 for orbital    269a    beta 
          max. resid. fock norm         =  2.704D-03 for orbital    271a    beta 
 mo-orthogonalization: Cholesky decomposition
          Delta Eig. =     0.0142450835 eV 
 
                                              current damping :  0.100
 ITERATION  ENERGY          1e-ENERGY        2e-ENERGY     RMS[dD(SAO)]   TOL
  26  -3239.0840404927    -30183.868318     14016.823612    0.192D-05 0.110D-12
          Norm of current diis error: 0.46040E-01
          max. resid. norm for Fia-block=  1.907D-03 for orbital    269a    beta 
          max. resid. fock norm         =  2.406D-03 for orbital    271a    beta 
          Delta Eig. =     0.0130099172 eV 
 
                                              current damping :  0.100
 ITERATION  ENERGY          1e-ENERGY        2e-ENERGY     RMS[dD(SAO)]   TOL
  27  -3239.0842177732    -30183.869537     14016.824653    0.171D-05 0.977D-13
          Norm of current diis error: 0.46683E-01
          max. resid. norm for Fia-block=  2.148D-03 for orbital    269a    beta 
          max. resid. fock norm         =  2.699D-03 for orbital    271a    beta 
          Delta Eig. =     0.0148656115 eV 
 
                                              current damping :  0.100
 ITERATION  ENERGY          1e-ENERGY        2e-ENERGY     RMS[dD(SAO)]   TOL
  28  -3239.0844198137    -30183.870846     14016.825761    0.192D-05 0.870D-13
          Norm of current diis error: 0.47407E-01
          max. resid. norm for Fia-block=  2.356D-03 for orbital    269a    beta 
          max. resid. fock norm         =  2.953D-03 for orbital    271a    beta 
          Delta Eig. =     0.0163997267 eV 
 
                                              current damping :  0.100
 ITERATION  ENERGY          1e-ENERGY        2e-ENERGY     RMS[dD(SAO)]   TOL
  29  -3239.0846446550    -30183.872308     14016.826998    0.210D-05 0.785D-13
          Norm of current diis error: 0.48199E-01
          max. resid. norm for Fia-block=  2.294D-03 for orbital    269a    beta 
          max. resid. fock norm         =  2.869D-03 for orbital    271a    beta 
          Delta Eig. =     0.0160902253 eV 
 
                                              current damping :  0.100
 ITERATION  ENERGY          1e-ENERGY        2e-ENERGY     RMS[dD(SAO)]   TOL
  30  -3239.0848669218    -30183.873764     14016.828231    0.204D-05 0.722D-13
          Norm of current diis error: 0.48968E-01
          max. resid. norm for Fia-block=  2.199D-03 for orbital    269a    beta 
          max. resid. fock norm         =  2.741D-03 for orbital    271a    beta 
 mo-orthogonalization: Cholesky decomposition
          Delta Eig. =     0.0156090550 eV 
 
                                              current damping :  0.100
 ITERATION  ENERGY          1e-ENERGY        2e-ENERGY     RMS[dD(SAO)]   TOL
  31  -3239.0850828490    -30183.875168     14016.829420    0.194D-05 0.674D-13
          Norm of current diis error: 0.49704E-01
          max. resid. norm for Fia-block=  2.260D-03 for orbital    269a    beta 
          max. resid. fock norm         =  2.807D-03 for orbital    271a    beta 
          Delta Eig. =     0.0162314107 eV 
 
                                              current damping :  0.100
 ITERATION  ENERGY          1e-ENERGY        2e-ENERGY     RMS[dD(SAO)]   TOL
  32  -3239.0853077123    -30183.876596     14016.830622    0.199D-05 0.634D-13
          Norm of current diis error: 0.50461E-01
          max. resid. norm for Fia-block=  2.445D-03 for orbital    269a    beta 
          max. resid. fock norm         =  3.027D-03 for orbital    271a    beta 
          Delta Eig. =     0.0176735813 eV 
 
                                              current damping :  0.100
 ITERATION  ENERGY          1e-ENERGY        2e-ENERGY     RMS[dD(SAO)]   TOL
  33  -3239.0855544136    -30183.878155     14016.831935    0.215D-05 0.598D-13
          Norm of current diis error: 0.51279E-01
          max. resid. norm for Fia-block=  2.446D-03 for orbital    269a    beta 
          max. resid. fock norm         =  3.020D-03 for orbital    271a    beta 
          Delta Eig. =     0.0177671860 eV 
 
                                              current damping :  0.100
 ITERATION  ENERGY          1e-ENERGY        2e-ENERGY     RMS[dD(SAO)]   TOL
  34  -3239.0858048957    -30183.879715     14016.833245    0.214D-05 0.569D-13
          Norm of current diis error: 0.52097E-01
          max. resid. norm for Fia-block=  2.403D-03 for orbital    269a    beta 
          max. resid. fock norm         =  2.958D-03 for orbital    271a    beta 
          Delta Eig. =     0.0175709220 eV 
 
                                              current damping :  0.100
 ITERATION  ENERGY          1e-ENERGY        2e-ENERGY     RMS[dD(SAO)]   TOL
  35  -3239.0860544694    -30183.881244     14016.834524    0.210D-05 0.551D-13
          Norm of current diis error: 0.52901E-01
          max. resid. norm for Fia-block=  2.442D-03 for orbital    269a    beta 
          max. resid. fock norm         =  2.995D-03 for orbital    271a    beta 
 mo-orthogonalization: Cholesky decomposition
          Delta Eig. =     0.0179733579 eV 
 
                                              current damping :  0.100
 ITERATION  ENERGY          1e-ENERGY        2e-ENERGY     RMS[dD(SAO)]   TOL
  36  -3239.0863115302    -30183.882799     14016.835821    0.212D-05 0.552D-13
          Norm of current diis error: 0.53720E-01
          max. resid. norm for Fia-block=  2.538D-03 for orbital    269a    beta 
          max. resid. fock norm         =  3.102D-03 for orbital    271a    beta 
          Delta Eig. =     0.0187604097 eV 
 
                                              current damping :  0.100
 ITERATION  ENERGY          1e-ENERGY        2e-ENERGY     RMS[dD(SAO)]   TOL
  37  -3239.0865826323    -30183.884424     14016.837176    0.220D-05 0.551D-13
          Norm of current diis error: 0.54573E-01
          max. resid. norm for Fia-block=  2.602D-03 for orbital    269a    beta 
          max. resid. fock norm         =  3.168D-03 for orbital    271a    beta 
          Delta Eig. =     0.0192734682 eV 
 
                                              current damping :  0.100
 ITERATION  ENERGY          1e-ENERGY        2e-ENERGY     RMS[dD(SAO)]   TOL
  38  -3239.0868647658    -30183.886100     14016.838570    0.225D-05 0.551D-13
          Norm of current diis error: 0.55450E-01
          max. resid. norm for Fia-block=  2.573D-03 for orbital    269a    beta 
          max. resid. fock norm         =  3.122D-03 for orbital    271a    beta 
          Delta Eig. =     0.0191145741 eV 
 
                                              current damping :  0.100
 ITERATION  ENERGY          1e-ENERGY        2e-ENERGY     RMS[dD(SAO)]   TOL
  39  -3239.0871478109    -30183.887771     14016.839958    0.221D-05 0.551D-13
          Norm of current diis error: 0.56323E-01
          max. resid. norm for Fia-block=  2.608D-03 for orbital    269a    beta 
          max. resid. fock norm         =  3.150D-03 for orbital    271a    beta 
          Delta Eig. =     0.0194133940 eV 
 
                                              current damping :  0.100
 ITERATION  ENERGY          1e-ENERGY        2e-ENERGY     RMS[dD(SAO)]   TOL
  40  -3239.0874385743    -30183.889473     14016.841368    0.224D-05 0.552D-13
          Norm of current diis error: 0.57212E-01
          max. resid. norm for Fia-block=  2.669D-03 for orbital    269a    beta 
          max. resid. fock norm         =  3.210D-03 for orbital    271a    beta 
 mo-orthogonalization: Cholesky decomposition
          Delta Eig. =     0.0198784018 eV 
 
                                              current damping :  0.100
 ITERATION  ENERGY          1e-ENERGY        2e-ENERGY     RMS[dD(SAO)]   TOL
  41  -3239.0877403067    -30183.891222     14016.842816    0.229D-05 0.551D-13
          Norm of current diis error: 0.58130E-01
          max. resid. norm for Fia-block=  2.721D-03 for orbital    269a    beta 
          max. resid. fock norm         =  3.258D-03 for orbital    271a    beta 
          Delta Eig. =     0.0202391391 eV 
 
                                              current damping :  0.100
 ITERATION  ENERGY          1e-ENERGY        2e-ENERGY     RMS[dD(SAO)]   TOL
  42  -3239.0880525611    -30183.893012     14016.844294    0.232D-05 0.552D-13
          Norm of current diis error: 0.59075E-01
          max. resid. norm for Fia-block=  2.736D-03 for orbital    269a    beta 
          max. resid. fock norm         =  3.261D-03 for orbital    271a    beta 
          Delta Eig. =     0.0203066619 eV 
 
                                              current damping :  0.100
 ITERATION  ENERGY          1e-ENERGY        2e-ENERGY     RMS[dD(SAO)]   TOL
  43  -3239.0883710938    -30183.894820     14016.845783    0.232D-05 0.437D-12
          Norm of current diis error: 0.60034E-01
          max. resid. norm for Fia-block=  2.745D-03 for orbital    269a    beta 
          max. resid. fock norm         =  3.255D-03 for orbital    271a    beta 
          Delta Eig. =     0.0203150095 eV 
 
                                              current damping :  0.100
 ITERATION  ENERGY          1e-ENERGY        2e-ENERGY     RMS[dD(SAO)]   TOL
  44  -3239.0886955647    -30183.896639     14016.847277    0.232D-05 0.277D-12
          Norm of current diis error: 0.61009E-01
          max. resid. norm for Fia-block=  2.801D-03 for orbital    269a    beta 
          max. resid. fock norm         =  3.303D-03 for orbital    271a    beta 
          Delta Eig. =     0.0206387466 eV 
 
                                              current damping :  0.100
 ITERATION  ENERGY          1e-ENERGY        2e-ENERGY     RMS[dD(SAO)]   TOL
  45  -3239.0890315899    -30183.898502     14016.848805    0.236D-05 0.183D-12
          Norm of current diis error: 0.62018E-01
          max. resid. norm for Fia-block=  2.836D-03 for orbital    269a    beta 
          max. resid. fock norm         =  3.325D-03 for orbital    271a    beta 
 mo-orthogonalization: Cholesky decomposition
          Delta Eig. =     0.0207654980 eV 
 
                                              current damping :  0.100
 ITERATION  ENERGY          1e-ENERGY        2e-ENERGY     RMS[dD(SAO)]   TOL
  46  -3239.0893769204    -30183.900399     14016.850356    0.238D-05 0.139D-12
          Norm of current diis error: 0.63056E-01
          max. resid. norm for Fia-block=  2.862D-03 for orbital    269a    beta 
          max. resid. fock norm         =  3.336D-03 for orbital    271a    beta 
          Delta Eig. =     0.0208039151 eV 
 
                                              current damping :  0.100
 ITERATION  ENERGY          1e-ENERGY        2e-ENERGY     RMS[dD(SAO)]   TOL
  47  -3239.0897307943    -30183.902323     14016.851927    0.239D-05 0.117D-12
          Norm of current diis error: 0.64121E-01
          max. resid. norm for Fia-block=  2.877D-03 for orbital    269a    beta 
          max. resid. fock norm         =  3.332D-03 for orbital    271a    beta 
          Delta Eig. =     0.0207324756 eV 
 
                                              current damping :  0.100
 ITERATION  ENERGY          1e-ENERGY        2e-ENERGY     RMS[dD(SAO)]   TOL
  48  -3239.0900919915    -30183.904267     14016.853509    0.241D-05 0.104D-12
          Norm of current diis error: 0.65211E-01
          max. resid. norm for Fia-block=  2.909D-03 for orbital    269a    beta 
          max. resid. fock norm         =  3.346D-03 for orbital    271a    beta 
          Delta Eig. =     0.0207494575 eV 
 
                                              current damping :  0.100
 ITERATION  ENERGY          1e-ENERGY        2e-ENERGY     RMS[dD(SAO)]   TOL
  49  -3239.0904628790    -30183.906241     14016.855112    0.240D-05 0.939D-13
          Norm of current diis error: 0.66336E-01
          max. resid. norm for Fia-block=  2.950D-03 for orbital    269a    beta 
          max. resid. fock norm         =  3.369D-03 for orbital    271a    beta 
          Delta Eig. =     0.0207843020 eV 
 
                                              current damping :  0.100
 ITERATION  ENERGY          1e-ENERGY        2e-ENERGY     RMS[dD(SAO)]   TOL
  50  -3239.0908448730    -30183.908250     14016.856740    0.242D-05 0.860D-13
          Norm of current diis error: 0.67500E-01
          max. resid. norm for Fia-block=  2.967D-03 for orbital    269a    beta 
          max. resid. fock norm         =  3.365D-03 for orbital    271a    beta 
 mo-orthogonalization: Cholesky decomposition
          Delta Eig. =     0.0206212501 eV 
 
                                              current damping :  0.100
 ITERATION  ENERGY          1e-ENERGY        2e-ENERGY     RMS[dD(SAO)]   TOL
  51  -3239.0912353143    -30183.910279     14016.858378    0.243D-05 0.797D-13
          Norm of current diis error: 0.68697E-01
          max. resid. norm for Fia-block=  2.994D-03 for orbital    269a    beta 
          max. resid. fock norm         =  3.370D-03 for orbital    271a    beta 
          Delta Eig. =     0.0204898477 eV 
 
                                              current damping :  0.100
 ITERATION  ENERGY          1e-ENERGY        2e-ENERGY     RMS[dD(SAO)]   TOL
  52  -3239.0916356905    -30183.912333     14016.860032    0.244D-05 0.745D-13
          Norm of current diis error: 0.69932E-01
          max. resid. norm for Fia-block=  3.017D-03 for orbital    269a    beta 
          max. resid. fock norm         =  3.369D-03 for orbital    271a    beta 
          Delta Eig. =     0.0202918734 eV 
 
                                              current damping :  0.100
 ITERATION  ENERGY          1e-ENERGY        2e-ENERGY     RMS[dD(SAO)]   TOL
  53  -3239.0920457417    -30183.914411     14016.861699    0.245D-05 0.701D-13
          Norm of current diis error: 0.71205E-01
          max. resid. norm for Fia-block=  3.054D-03 for orbital    269a    beta 
          max. resid. fock norm         =  3.381D-03 for orbital    271a    beta 
          Delta Eig. =     0.0201459420 eV 
 
                                              current damping :  0.100
 ITERATION  ENERGY          1e-ENERGY        2e-ENERGY     RMS[dD(SAO)]   TOL
  54  -3239.0924677001    -30183.916520     14016.863387    0.247D-05 0.663D-13
          Norm of current diis error: 0.72524E-01
          max. resid. norm for Fia-block=  3.081D-03 for orbital    269a    beta 
          max. resid. fock norm         =  3.382D-03 for orbital    271a    beta 
          Delta Eig. =     0.0199371367 eV 
 
                                              current damping :  0.100
 ITERATION  ENERGY          1e-ENERGY        2e-ENERGY     RMS[dD(SAO)]   TOL
  55  -3239.0929005498    -30183.918656     14016.865089    0.248D-05 0.630D-13
          Norm of current diis error: 0.73885E-01
          max. resid. norm for Fia-block=  3.105D-03 for orbital    269a    beta 
          max. resid. fock norm         =  3.379D-03 for orbital    271a    beta 
 mo-orthogonalization: Cholesky decomposition
          Delta Eig. =     0.0205359901 eV 
 
                                              current damping :  0.100
 ITERATION  ENERGY          1e-ENERGY        2e-ENERGY     RMS[dD(SAO)]   TOL
  56  -3239.0933442582    -30183.920815     14016.866805    0.249D-05 0.600D-13
          Norm of current diis error: 0.75290E-01
          max. resid. norm for Fia-block=  3.141D-03 for orbital    269a    beta 
          max. resid. fock norm         =  3.387D-03 for orbital    271a    beta 
          Delta Eig. =     0.0212089054 eV 
