
OPTIMIZATION CYCLE 9
Mon Feb 15 01:32:15 PST 2016
 operating system is UNIX !
 hostname is         c-9-333.local

 statpt (c-9-333.local) : TURBOMOLE V7.0.2( ) 8 Jan 2016 at 10:54:38
 Copyright (C) 2016 TURBOMOLE GmbH, Karlsruhe


    2016-02-15 01:32:15.131 



                           this is S T A T P T   


                     hessian and coordinate update for
                          stationary point search 

                     by barbara unterreiner, marek sierka,
                           and reinhart ahlrichs

                          quantum chemistry group
                          universitaet  karlsruhe
                                  germany


  Keyword $statpt not found - using default options
 
        ***************  Stationary point options ******************
        ************************************************************
           Maximum allowed trust radius:           3.000000E-01
           Minimum allowed trust radius:           1.000000E-03
           Initial trust radius:                   1.500000E-01
           GDIIS used if gradient norm <           1.000000E-02
           Number of previous steps for GDIIS:       5
           Hessian update method:                  BFGS
                        *** Convergence criteria ***                
           Threshold for energy change:            1.000000E-07
           Threshold for max displacement element: 1.000000E-03
           Threshold for max gradient element :    1.000000E-04
           Threshold for RMS of displacement:      5.000000E-04
           Threshold for RMS of gradient:          5.000000E-04
        ************************************************************
 
  actual coordinates :
        -3.179450060852         3.384808172386         0.775123447280
        -0.975336823262         2.436889050847        -0.814716380076
        -0.000005119113        -0.000082317497         0.068129464567
         2.598151834382        -0.373826884088        -0.814704832616
         4.521028852678         1.061327657691         0.774997396773
        -1.622768768218        -2.063235714311        -0.814819097412
        -1.341650015410        -4.446027512866         0.775003561208
        -2.593675232850         3.589130847073         2.734172455809
        -3.821527180903         5.213303557689         0.083085551470
        -4.780627954787         2.097703513105         0.719555906722
         0.547417774863         3.812833177703        -0.702380819584
        -1.523599694203         2.324171433907        -2.817129674932
         2.774666615758         0.157182151096        -2.817164531051
         3.028556929483        -2.380489811914        -0.702172090632
         4.206667657168         3.091495716769         0.719380646806
         6.425599531361         0.703376388073         0.082868108424
         4.405260922360         0.451913535050         2.734068540535
        -3.575767996246        -1.432506936965        -0.702530494368
        -1.250920619056        -2.481645625939        -2.817222489764
        -1.811589489270        -4.040884490809         2.734024118939
        -2.604060223899        -5.916363822653         0.082905922708
         0.573629060014        -5.189072084345         0.719525289196
  actual gradients :
        -0.000000464946         0.000002358403        -0.000001268754
         0.000001675221        -0.000001310201         0.000009339618
        -0.000000479523        -0.000000389919        -0.000011076452
        -0.000001099370        -0.000000731739         0.000007723471
         0.000001834371        -0.000000796375        -0.000001597151
        -0.000000321698         0.000001585561         0.000008579494
        -0.000002013412        -0.000001577171        -0.000001439678
         0.000000262421        -0.000000596990        -0.000000461442
        -0.000000921242         0.000000354091         0.000000680343
         0.000001561167         0.000000206244        -0.000000257510
        -0.000000540909         0.000001225199        -0.000001709107
         0.000000002598         0.000000036606        -0.000001421747
         0.000000055532        -0.000000676681        -0.000001023790
         0.000002320406         0.000001808883        -0.000001976799
        -0.000001977430        -0.000000456510        -0.000000582602
         0.000000674468         0.000000705769         0.000000480205
        -0.000000699848         0.000000126235        -0.000000601300
         0.000000241114        -0.000002438746        -0.000001911820
        -0.000000265185        -0.000000237081        -0.000001628048
         0.000000374020         0.000000615348        -0.000000323290
         0.000000333691        -0.000000778870         0.000000707067
        -0.000000734051         0.000001164562        -0.000000226424
     Number of symmetry restricted degrees of freedom:    66
     Constituted by:     3 translational degrees of freedom
                         3 rotational degrees of freedom
                      60 internal degrees of freedom

  *************************************************************************
   ATOM                      CARTESIAN COORDINATES
    1 c      -3.17945006085183      3.38480817238634      0.77512344727963
    2 c      -0.97533682326202      2.43688905084703     -0.81471638007621
    3 n      -0.00000511911258     -0.00008231749736      0.06812946456708
    4 c       2.59815183438215     -0.37382688408784     -0.81470483261625
    5 c       4.52102885267766      1.06132765769066      0.77499739677314
    6 c      -1.62276876821833     -2.06323571431097     -0.81481909741231
    7 c      -1.34165001540959     -4.44602751286599      0.77500356120772
    8 h      -2.59367523284971      3.58913084707266      2.73417245580892
    9 h      -3.82152718090253      5.21330355768865      0.08308555147010
   10 h      -4.78062795478673      2.09770351310484      0.71955590672184
   11 h       0.54741777486297      3.81283317770250     -0.70238081958417
   12 h      -1.52359969420294      2.32417143390705     -2.81712967493179
   13 h       2.77466661575833      0.15718215109559     -2.81716453105132
   14 h       3.02855692948313     -2.38048981191353     -0.70217209063243
   15 h       4.20666765716761      3.09149571676862      0.71938064680591
   16 h       6.42559953136143      0.70337638807269      0.08286810842413
   17 h       4.40526092235979      0.45191353505019      2.73406854053511
   18 h      -3.57576799624593     -1.43250693696550     -0.70253049436825
   19 h      -1.25092061905583     -2.48164562593925     -2.81722248976435
   20 h      -1.81158948926955     -4.04088449080858      2.73402411893869
   21 h      -2.60406022389932     -5.91636382265315      0.08290592270842
   22 h       0.57362906001376     -5.18907208434473      0.71952528919643
  *************************************************************************
   ATOM                      CARTESIAN GRADIENTS  
    1 c      -0.00000046494588      0.00000235840342     -0.00000126875376
    2 c       0.00000167522092     -0.00000131020129      0.00000933961789
    3 n      -0.00000047952300     -0.00000038991852     -0.00001107645209
    4 c      -0.00000109937026     -0.00000073173944      0.00000772347081
    5 c       0.00000183437123     -0.00000079637545     -0.00000159715053
    6 c      -0.00000032169788      0.00000158556096      0.00000857949424
    7 c      -0.00000201341233     -0.00000157717139     -0.00000143967776
    8 h       0.00000026242100     -0.00000059698955     -0.00000046144169
    9 h      -0.00000092124246      0.00000035409119      0.00000068034263
   10 h       0.00000156116713      0.00000020624414     -0.00000025751044
   11 h      -0.00000054090874      0.00000122519943     -0.00000170910669
   12 h       0.00000000259812      0.00000003660556     -0.00000142174689
   13 h       0.00000005553159     -0.00000067668115     -0.00000102378963
   14 h       0.00000232040570      0.00000180888334     -0.00000197679862
   15 h      -0.00000197743047     -0.00000045650984     -0.00000058260198
   16 h       0.00000067446778      0.00000070576868      0.00000048020472
   17 h      -0.00000069984831      0.00000012623487     -0.00000060130002
   18 h       0.00000024111368     -0.00000243874597     -0.00000191182032
   19 h      -0.00000026518486     -0.00000023708141     -0.00000162804797
   20 h       0.00000037402023      0.00000061534793     -0.00000032328951
   21 h       0.00000033369051     -0.00000077886969      0.00000070706673
   22 h      -0.00000073405101      0.00000116456203     -0.00000022642393
  *************************************************************************

  norm of actual CARTESIAN gradient:  2.05709E-05
  norm of actual INTERNAL  gradient:  2.11357E-05

  ENERGY =    -293.2122572426 a.u.; # of cycle =    9

  Approximate Hessian read from $hessapprox data section

  Hessian updated according to BFGS formula
  Number of zero Hessian eigenvalues:   0
  Number of structures for GDIIS interpolation:    5
  GDIIS step:     0.000225

  Transforming internal coordinate displacements to Cartesian space
      Iteration   1 residual norm     2.249356E-04
      Iteration   2 residual norm     2.412152E-08
      Iteration   3 residual norm     2.409002E-15
      Transformation converged
      Residual norm:    2.409002E-15 after    3 iterations

      ****************************************************************** 
                          CONVERGENCE INFORMATION

                               Converged?     Value      Criterion
             Energy change         yes      0.0000000   0.0000001
             RMS of displacement   yes      0.0000290   0.0005000
             RMS of gradient       yes      0.0000027   0.0005000
             MAX displacement      yes      0.0001150   0.0010000
             MAX gradient          yes      0.0000150   0.0001000
      ****************************************************************** 


    ------------------------------------------------------------------------
         total  cpu-time :   0.05 seconds
         total wall-time :   0.05 seconds
    ------------------------------------------------------------------------


   ****  statpt : all done  ****


    2016-02-15 01:32:15.168 

fine, there is no data group "$actual step"
next step = ridft
 operating system is UNIX !
 hostname is         c-9-333.local

 ridft (c-9-333.local) : TURBOMOLE V7.0( ) 18 Nov 2015 at 09:57:41
 Copyright (C) 2015 TURBOMOLE GmbH, Karlsruhe


    2016-02-15 01:32:15.232 



                                  r i d f t

                        DFT program with RI approximation 
                                for coulomb part 




                                                 
                                 References:     
                                                 
          TURBOMOLE:                             
              R. Ahlrichs, M. Baer, M. Haeser, H. Horn, and
              C. Koelmel
              Electronic structure calculations on workstation
              computers: the program system TURBOMOLE
              Chem. Phys. Lett. 162: 165 (1989)
          Density Functional:                              
              O. Treutler and R. Ahlrichs                      
              Efficient Molecular Numerical Integration Schemes
              J. Chem. Phys. 102: 346 (1995)                   
          Parallel Version:                                
              Performance of parallel TURBOMOLE for Density    
              Functional Calculations                          
              M. v. Arnim and R. Ahlrichs                      
              J. Comp. Chem. 19: 1746 (1998)                   
          RI-J Method:                                     
              Auxiliary Basis Sets to approximate Coulomb      
              Potentials                                       
              Chem. Phys. Lett. 240: 283 (1995)                
              K. Eichkorn, O. Treutler, H. Oehm, M. Haeser     
              and R. Ahlrichs                                  
              Chem. Phys. Lett. 242: 652 (1995)                
                                                           
              Auxiliary Basis Sets for Main Row Atoms and their
              Use to approximate Coulomb Potentials            
              K. Eichkorn, F. Weigend, O. Treutler and         
              R. Ahlrichs                                      
              Theo. Chem. Acc. 97: 119 (1997)                   
                                                           
              Accurate Coulomb-fitting basis sets for H to Rn 
              F. Weigend                                        
              Phys. Chem. Chem. Phys. 8: 1057 (2006)            
                                                           
          Multipole accelerated RI-J (MARI-J):             
              Fast evaluation of the Coulomb potential for     
              electron densities using multipole accelerated   
              resolution of identity approximation             
              M. Sierka, A. Hogekamp and R. Ahlrichs           
              J. Chem. Phys. 118: 9136 (2003)                  
          RI-JK Method:                                     
              A fully direct RI-HF algorithm: Implementation,
              optimised auxiliary basis sets, demonstration of
              accuracy and efficiency                         
              F. Weigend                                      
              Phys. Chem. Chem. Phys. 4: 4285 (2002)           
          Two-component HF and DFT with spin-orbit coupling:  
              Self-consistent treatment of spin-orbit         
              interactions with efficient Hartree-Fock and    
              density functional methods                      
              M. K. Armbruster, F. Weigend, C. van Wüllen and 
              W. Klopper                                      
              Phys. Chem. Chem. Phys. 10: 1748 (2008)         
          Relativistic all-electron 2c calculations           
              An efficient implementation of two-component    
              relativistic exact-decoupling methods for large 
              molecules                                       
              D. Peng, N. Middendorf, F. Weigend, M. Reiher   
              J. Chem. Phys. 138, 184105 (2013)               
                                         


 


              +--------------------------------------------------+
              |      general information about current run       |
              +--------------------------------------------------+

 

 DENSITY CONVERGENCE CHECK SWITCHED ON !
 SCF CONVERGENCE IF RMS(delta[D]) <     0.1000000000E-06

 PBE functional
 exchange:    LDA + PBE
 correlation: LDA (PW) + PBE
 A DFT calculation using the RI-J approximation will be carried out.
 Allocatable memory for RI due to $ricore (MB):       15000


              +--------------------------------------------------+
              | Atomic coordinate, charge and isotop information |
              +--------------------------------------------------+

                    atomic coordinates            atom    charge  isotop
         -3.17957102    3.38480063    0.77501109    c      6.000     0
         -0.97533277    2.43691844   -0.81468192    c      6.000     0
         -0.00000726   -0.00002998    0.06825755    n      7.000     0
          2.59811719   -0.37381246   -0.81468119    c      6.000     0
          4.52109380    1.06125245    0.77498892    c      6.000     0
         -1.62278798   -2.06316987   -0.81471291    c      6.000     0
         -1.34154799   -4.44602740    0.77499341    c      6.000     0
         -2.59395458    3.58911482    2.73410868    h      1.000     0
         -3.82158294    5.21330139    0.08292968    h      1.000     0
         -4.78075333    2.09770551    0.71930441    h      1.000     0
          0.54738977    3.81288816   -0.70222183    h      1.000     0
         -1.52345543    2.32420058   -2.81712790    h      1.000     0
          2.77459349    0.15722600   -2.81713132    h      1.000     0
          3.02846378   -2.38049201   -0.70218376    h      1.000     0
          4.20688140    3.09144343    0.71934682    h      1.000     0
          6.42562563    0.70315506    0.08282656    h      1.000     0
          4.40532603    0.45187329    2.73407106    h      1.000     0
         -3.57578724   -1.43246715   -0.70226173    h      1.000     0
         -1.25106055   -2.48149111   -2.81715149    h      1.000     0
         -1.81133232   -4.04097932    2.73407107    h      1.000     0
         -2.60403439   -5.91631004    0.08291867    h      1.000     0
          0.57371672   -5.18910042    0.71932615    h      1.000     0
 
       center of nuclear mass  :   -0.00000406   -0.00000801   -0.00418038
       center of nuclear charge:   -0.00000323   -0.00000640   -0.00320462

              +--------------------------------------------------+
              |               basis set information              |
              +--------------------------------------------------+

              we will work with the 1s 3p 5d 7f 9g ... basis set
              ...i.e. with spherical basis functions...

   type   atoms  prim   cont   basis
   ---------------------------------------------------------------------------
    c        6    118     91   cc-pV5Z   [6s5p4d3f2g1h|24s8p4d3f2g1h]
    n        1    118     91   cc-pV5Z   [6s5p4d3f2g1h|24s8p4d3f2g1h]
    h       15     58     55   cc-pV5Z   [5s4p3d2f1g|8s4p3d2f1g]
   ---------------------------------------------------------------------------
   total:   22   1696   1462
   ---------------------------------------------------------------------------

   total number of primitive shells          :  102
   total number of contracted shells         :  372
   total number of cartesian basis functions : 1932
   total number of SCF-basis functions       : 1462


 integral neglect threshold       :  0.17E-13
 integral storage threshold THIZE :  0.10E-04
 integral storage threshold THIME :         5

 RI-J AUXILIARY BASIS SET information:

              we will work with the 1s 3p 5d 7f 9g ... basis set
              ...i.e. with spherical basis functions...

   type   atoms  prim   cont   basis
   ---------------------------------------------------------------------------
    c        6     70     49   cc-pV5Z   [6s4p3d1f1g|12s5p4d2f1g]
    n        1     70     49   cc-pV5Z   [6s4p3d1f1g|12s5p4d2f1g]
    h       15     16     11   cc-pV5Z   [3s1p1d|5s2p1d]
   ---------------------------------------------------------------------------
   total:   22    730    508
   ---------------------------------------------------------------------------

   total number of primitive shells          :   56
   total number of contracted shells         :  180
   total number of cartesian basis functions :  607
   total number of SCF-basis functions       :  508


 symmetry group of the molecule :   c1 

 the group has the following generators :
   c1(z)

    1 symmetry operations found

 there are 1 real representations :   a   

 maximum number of shells which are related by symmetry :  1


    mo occupation :
   irrep   mo's   occupied
    a     1462       29
 
 number of basis functions   :         1462
 number of occupied orbitals :           29
 
  
           ------------------
           density functional
           ------------------
 PBE functional
 exchange:    LDA + PBE
 correlation: LDA (PW) + PBE
 iterations will be done with small grid
  
 spherical integration : Lebedev's spherical grid
 spherical gridsize    :           5
    i.e. gridpoints    :         590
 value for diffuse not defined
 radial integration    : Chebyshev 2nd kind (scaling 3)
 radial gridsize       :           8
 integration cells     :          22
 partition function    : becke
 partition sharpness   :           3
  

 biggest AO integral is expected to be     4.326262612
  
           ------------------------
               RI-J - INFORMATION
           ------------------------
 Contributions to RI integral batches: 
  neglected integral batches:       16362
  direct contribution:                  0
  memory contribution:       53016
 Memory core needed for (P|Q) and Cholesky      2 MByte
 Memory core minimum needed except of (P|Q)    11 MByte
 Total minimum memory core needed (sum)        13 MByte
  
 ****************************************
 Memory allocated for RI-J  6317 MByte
 ****************************************
                                            

          ------------------------
          nuclear repulsion energy  :   337.463445044    
          ------------------------

 
          -----------------
          -S,T+V- integrals
          -----------------

 1e-integrals will be neglected if expon. factor < 0.172979E-14
 
   Difference densities algorithm switched on.
   The maximal number of linear combinations of
   difference densities is          20 .

 automatic virtual orbital shift switched on 
      shift if e(lumo)-e(homo) < 0.10000000    


 DIIS switched on: error vector is FDS-SDF
 Max. Iterations for DIIS is     :   4
 DIIS matrix (see manual) 
    Scaling factor of diagonals  :  1.200
    threshold for scaling factor :  0.000

 scf convergence criterion : increment of total energy < .1000000D-08
                  and increment of one-electron energy < .1000000D-05

  MOs are in ASCII format !


 reading orbital data $scfmo  from file mos . 

 orbital characterization : scfconv=9
 

 DSCF restart information will be dumped onto file mos


 Starting SCF iterations

          Overall gridpoints after grid construction =         95049

 ITERATION  ENERGY          1e-ENERGY        2e-ENERGY     RMS[dD(SAO)]   TOL
   1  -292.13009469645    -1061.5424897     431.94894992    0.000D+00 0.173D-13
                            Exc = -44.7393596945     Coul =  476.688309616    
                              N = 58.000008980    
                            current damping = 0.700
 
          max. resid. norm for Fia-block=  6.313D-05 for orbital      4a         
          max. resid. fock norm         =  3.767D-03 for orbital   1460a         

 ITERATION  ENERGY          1e-ENERGY        2e-ENERGY     RMS[dD(SAO)]   TOL
   2  -292.13009470569    -1061.5425132     431.94897349    0.971D-07 0.109D-13
                            Exc = -44.7393630296     Coul =  476.688336522    
                              N = 58.000008979    
                            current damping = 0.650
 
          Norm of current diis error: 0.46038E-03
          max. resid. norm for Fia-block=  2.590D-05 for orbital      4a         
          max. resid. fock norm         =  1.416D-03 for orbital   1460a         

 DENSITY CONVERGED !


 ITERATION  ENERGY          1e-ENERGY        2e-ENERGY     RMS[dD(SAO)]   TOL
   3  -292.13009470725    -1061.5425010     431.94896129    0.422D-07 0.842D-14
                            Exc = -44.7393623272     Coul =  476.688323620    
                              N = 58.000008979    
                            current damping = 0.600
 
          Norm of current diis error: 0.18260E-03
          max. resid. norm for Fia-block=  1.024D-05 for orbital      4a         
          max. resid. fock norm         =  5.713D-04 for orbital   1461a         

 DENSITY CONVERGED !


 ITERATION  ENERGY          1e-ENERGY        2e-ENERGY     RMS[dD(SAO)]   TOL
   4  -292.13009470752    -1061.5425167     431.94897693    0.174D-07 0.758D-14
                            Exc = -44.7393637179     Coul =  476.688340650    
                              N = 58.000008979    
                            current damping = 0.650
 
          Norm of current diis error: 0.70126E-04
          max. resid. norm for Fia-block=  3.828D-06 for orbital      4a         
          max. resid. fock norm         =  2.158D-04 for orbital   1461a         

 ENERGY & DENSITY CONVERGED !

          Overall gridpoints after grid construction =        317753

 ITERATION  ENERGY          1e-ENERGY        2e-ENERGY     RMS[dD(SAO)]   TOL
   5  -292.13010661473    -1061.5425086     431.94895689    0.716D-08 0.729D-14
                            Exc = -44.7393749966     Coul =  476.688331888    
                              N = 57.999992988    
                            current damping = 0.700
 
          Norm of current diis error: 0.30092E-04
          max. resid. norm for Fia-block=  1.513D-06 for orbital      4a         
          max. resid. fock norm         =  8.539D-05 for orbital   1461a         

 End of SCF iterations

   convergence criteria satisfied after    5 iterations


                  ------------------------------------------ 
                 |  total energy      =   -292.13010661473  |
                  ------------------------------------------ 
                 :  kinetic energy    =    290.87233258297  :
                 :  potential energy  =   -583.00243919771  :
                 :  virial theorem    =      1.99569447310  :
                 :  wavefunction norm =      1.00000000000  :
                  .......................................... 


 orbitals $scfmo  will be written to file mos

    irrep                 25a         26a         27a         28a         29a   
 eigenvalues H         -0.30951    -0.30829    -0.28424    -0.28424    -0.18013
            eV          -8.4223     -8.3892     -7.7346     -7.7345     -4.9016
 occupation              2.0000      2.0000      2.0000      2.0000      2.0000 

    irrep                 30a         31a         32a         33a         34a   
 eigenvalues H          0.00085     0.01126     0.01127     0.01757     0.04402
            eV           0.0232      0.3064      0.3067      0.4781      1.1978
 
 
 
 
 ==============================================================================
                           electrostatic moments
 ==============================================================================

 reference point for electrostatic moments:    0.00000   0.00000   0.00000

 
              nuc           elec       ->  total
 ------------------------------------------------------------------------------
                          charge      
 ------------------------------------------------------------------------------
          58.000000     -58.000000       0.000000
 
 ------------------------------------------------------------------------------
                       dipole moment  
 ------------------------------------------------------------------------------
   x      -0.000187       0.000259       0.000071
   y      -0.000371       0.000388       0.000017
   z      -0.185868      -0.020596      -0.206464
 
   | dipole moment | =     0.2065 a.u. =     0.5248 debye 
 
 ------------------------------------------------------------------------------
                     quadrupole moment
 ------------------------------------------------------------------------------
  xx     422.922943    -457.931807     -35.008864
  yy     422.928126    -457.936872     -35.008746
  zz      72.077489    -109.155536     -37.078047
  xy       0.003930      -0.003999      -0.000069
  xz      -0.000781       0.000702      -0.000079
  yz       0.001603      -0.001777      -0.000174
 
     1/3  trace=     -35.698552
     anisotropy=       2.069242
 
 ==============================================================================
 
 


    ------------------------------------------------------------------------
         total  cpu-time :  3 minutes and 15 seconds
         total wall-time :  3 minutes and 15 seconds
    ------------------------------------------------------------------------


   ****  ridft : all done  ****


    2016-02-15 01:35:30.106 

fine, there is no data group "$actual step"
next step = rirpa
 
 
    *************************************************************************
    *************************** PROGRAM RIRPA *******************************
    ******                                                             ******
    ******              H. Eshuis, J. E. Bates and F. Furche           ******
    ******                                                             ******
    ****** Nov 2011                                                    ******
    ****** Copyright TURBOMOLE GmbH                                    ******
    *************************************************************************
    
    
                                References:                                  
    
                   RIRPA:                                                    
                     H. Eshuis, J. Yarkony and F. Furche                     
                     Fast computation of molecular random phase              
                     approximation correlation energies using resolution     
                     of the identity imaginary frequency integration         
                     J. Chem. Phys. 132: 234114 (2010)                       
    
                     H. Eshuis, J. E. Bates and F. Furche                    
                     Electron correlation methods based on                   
                     the random phase approximation                          
                     Theor. Chem. Acc.  131: 1084 (2012)                     
    
                   TWO-COMPONENT RIRPA:                                      
                     M. Kuehn                                                
                     Correlation energies from the                           
                     two-component random-phase approximation                
                     J. Chem. Theory Comput. 10: 623 (2014)                  
    
                   RIRPA GRADIENTS:                                          
                     Asbjoern M. Burow, Jefferson E. Bates, Filipp Furche*,  
                     and Henk Eshuis                                         
                     Analytical First-Order Molecular Properties and Forces  
                     within the Adiabatic Connection Random Phase            
                     Approximation                                           
                     J. Chem. Theory Comput. (2013, ASAP),                   
                     DOI: 10.1021/ct4008553                                  
    
    
    
 hostname is         c-9-333.local

 rirpa (c-9-333.local) : TURBOMOLE V7.0( ) 18 Nov 2015 at 09:57:41
 Copyright (C) 2015 TURBOMOLE GmbH, Karlsruhe


    2016-02-15 01:35:30.211 

 number of mkl threads =          10
 
                FOUND RI-J FLAG
 
  HF exact exchange energy will be computed using RI-J.


              +--------------------------------------------------+
              | Atomic coordinate, charge and isotop information |
              +--------------------------------------------------+

                    atomic coordinates            atom    charge  isotop
         -3.17957102    3.38480063    0.77501109    c      6.000     0
         -0.97533277    2.43691844   -0.81468192    c      6.000     0
         -0.00000726   -0.00002998    0.06825755    n      7.000     0
          2.59811719   -0.37381246   -0.81468119    c      6.000     0
          4.52109380    1.06125245    0.77498892    c      6.000     0
         -1.62278798   -2.06316987   -0.81471291    c      6.000     0
         -1.34154799   -4.44602740    0.77499341    c      6.000     0
         -2.59395458    3.58911482    2.73410868    h      1.000     0
         -3.82158294    5.21330139    0.08292968    h      1.000     0
         -4.78075333    2.09770551    0.71930441    h      1.000     0
          0.54738977    3.81288816   -0.70222183    h      1.000     0
         -1.52345543    2.32420058   -2.81712790    h      1.000     0
          2.77459349    0.15722600   -2.81713132    h      1.000     0
          3.02846378   -2.38049201   -0.70218376    h      1.000     0
          4.20688140    3.09144343    0.71934682    h      1.000     0
          6.42562563    0.70315506    0.08282656    h      1.000     0
          4.40532603    0.45187329    2.73407106    h      1.000     0
         -3.57578724   -1.43246715   -0.70226173    h      1.000     0
         -1.25106055   -2.48149111   -2.81715149    h      1.000     0
         -1.81133232   -4.04097932    2.73407107    h      1.000     0
         -2.60403439   -5.91631004    0.08291867    h      1.000     0
          0.57371672   -5.18910042    0.71932615    h      1.000     0
 
       center of nuclear mass  :   -0.00000406   -0.00000801   -0.00418038
       center of nuclear charge:   -0.00000323   -0.00000640   -0.00320462
              +-------------------------------------------------+
              |        Rotational Constants Section             |
              +-------------------------------------------------+
                                   Center of Mass [a.u]:
              -0.00000406061164        -0.00000800646708        -0.00418038022223
                     Principal Moments of Inertia [a.u.]
             776.13443145437816       776.15036170813187      1361.68143964765500
                       Rotational constants A,B,C [a.u.]
               0.00064421829484         0.00064420507245         0.00036719307868
                     Rotational constants A,B,C [cm**-1]
               0.07756347881502         0.07756188684784         0.04420981646580
                        Rotational constants A,B,C [MHz]
            2325.29459649844057      2325.24687052316312      1325.37695460124996

   * BASIS SET information:

              +--------------------------------------------------+
              |               basis set information              |
              +--------------------------------------------------+

              we will work with the 1s 3p 5d 7f 9g ... basis set
              ...i.e. with spherical basis functions...

   type   atoms  prim   cont   basis
   ---------------------------------------------------------------------------
    c        6    118     91   cc-pV5Z   [6s5p4d3f2g1h|24s8p4d3f2g1h]
    n        1    118     91   cc-pV5Z   [6s5p4d3f2g1h|24s8p4d3f2g1h]
    h       15     58     55   cc-pV5Z   [5s4p3d2f1g|8s4p3d2f1g]
   ---------------------------------------------------------------------------
   total:   22   1696   1462
   ---------------------------------------------------------------------------

   total number of primitive shells          :  102
   total number of contracted shells         :  372
   total number of cartesian basis functions : 1932
   total number of SCF-basis functions       : 1462


   * AUXILIARY BASIS SET information:

              +--------------------------------------------------+
              |               basis set information              |
              +--------------------------------------------------+

              we will work with the 1s 3p 5d 7f 9g ... basis set
              ...i.e. with spherical basis functions...

   type   atoms  prim   cont   basis
   ---------------------------------------------------------------------------
    c        6    193    193   cc-pV5Z   [10s8p7d6f4g3h1i|10s8p7d6f4g3h1i]
    n        1    193    193   cc-pV5Z   [10s8p7d6f4g3h1i|10s8p7d6f4g3h1i]
    h       15     91     91   cc-pV5Z   [6s5p4d3f2g1h|6s5p4d3f2g1h]
   ---------------------------------------------------------------------------
   total:   22   2716   2716
   ---------------------------------------------------------------------------

   total number of primitive shells          :   99
   total number of contracted shells         :  588
   total number of cartesian basis functions : 3899
   total number of SCF-basis functions       : 2716


   * RIJ AUXILIARY BASIS SET information:

              +--------------------------------------------------+
              |               basis set information              |
              +--------------------------------------------------+

              we will work with the 1s 3p 5d 7f 9g ... basis set
              ...i.e. with spherical basis functions...

   type   atoms  prim   cont   basis
   ---------------------------------------------------------------------------
    c        6     70     49   cc-pV5Z   [6s4p3d1f1g|12s5p4d2f1g]
    n        1     70     49   cc-pV5Z   [6s4p3d1f1g|12s5p4d2f1g]
    h       15     16     11   cc-pV5Z   [3s1p1d|5s2p1d]
   ---------------------------------------------------------------------------
   total:   22    730    508
   ---------------------------------------------------------------------------

   total number of primitive shells          :   56
   total number of contracted shells         :  180
   total number of cartesian basis functions :  607
   total number of SCF-basis functions       :  508


 reading orbital data $scfmo  from file mos . 

 orbital characterization : scfconv=9
 

 integral neglect threshold       :  0.32E+02

 scfconv           9

 MAXIMUM CORE MEMORY WHICH CAN BE ALLOCATED DYNAMICALLY = 20000 MiB
              ( or 2621440000 double words )


 there are 1 real representations :   a   

 maximum number of shells which are related by symmetry :  1


         --------------------------------------------------------------
                   checking mo's by calculating trace(D*S)

              number of electrons : 
                 from trace(D*S)         :   57.999999999998
                 from occupation numbers :   58.000000000000

              molecular charge           :    0.000000000000
         --------------------------------------------------------------

 time elapsed for calculating density matrices :   1.605 sec
 all orbitals will be active in the correlation treatment

     total memory allocated for calculation of (Q|P)**(-1/2) : 85 MiB


     calculation of (P|Q) ...
     time in lp2sym        cpu:  0.45 sec    wall:  0.46 sec    ratio:  1.0


     calculation of the Cholesky decomposition of (P|Q)**(-1) ...
     time in invmetri      cpu: 14.75 sec    wall:  1.86 sec    ratio:  7.9

   threshold for RMS(d[D]) in SCF was     :  0.10E-06
   integral neglect threshold             :  0.85E-14
   derivative integral neglect threshold  :  0.10E-06


 setting up bound for integral derivative estimation

 increment for numerical differentiation : 0.00050000
 total memory allocated for calculation of (Q|P)**(-1/2) : 85 MiB
 Dividing biap into          335  block chunks,
 using                    29 MB per block
 Reserved                   9947 MB for BLAS routines
 Estimated total memory usage:                  19952 MB
 number of passes:            1
 
 Number of eigenvalues < 6e-3:            0
 
 
            -----------------------------
            Complex frequency integration
            -----------------------------
 
 Number of Clenshaw-Curtis nodes:          200
 Optimized scaling parameter    :    2.01857069224399     
 Sensitivity measure            :  -5.702358724102297E-011
 
 Allocatable memory for RI due to $ricore (MB):       15000

 there are 1 real representations :   a   

 maximum number of shells which are related by symmetry :  1

  
           ------------------------
               RI-J - INFORMATION
           ------------------------
 Contributions to RI integral batches: 
  neglected integral batches:       10506
  direct contribution:                  0
  memory contribution:       58872
 
          -----------------
          -S,T+V- integrals
          -----------------

 1e-integrals will be neglected if expon. factor < 0.854920E-14

          ------------------------
          nuclear repulsion energy  :   337.463445044    
          ------------------------


                  -------------------------------------------- 
                 |  HXX+RIRPA total energy     =   -293.21225725460  |
                  --------------------------------------------- 
                 :  RIRPA correlation energy   =     -2.78763587636  :
                 :  HXX total energy           =   -290.42462137824  :
                 :  Hartree energy             =    476.68833188830  :
                 :  Exact Exchange energy      =    -43.03388976011  :
                  ............................................. 


    ------------------------------------------------------------------------
    Rirpa Energy profiling         cpu                    wall         ratio
    ------------------------------------------------------------------------
    module                         sec     %               sec     %
    ------------------------------------------------------------------------
    RIRPA_energy              14922.2  100.00         8735.8  100.00   1.7
    riccaux                      15.3    0.10            2.4    0.03   6.4
    riccbound                    31.7    0.21           29.9    0.34   1.1
    ccmkbaoi                   1351.3    9.06          135.8    1.55  10.0
    ecrpa                      5643.2   37.82          711.2    8.14   7.9
    tread                       588.8    3.95           97.9    1.12   6.0
    tqbuild                    4603.9   30.85          531.8    6.09   8.7
    trpaln                      367.1    2.46           38.4    0.44   9.6
    ehxx                       7862.7   52.69         7850.8   89.87   1.0
    ------------------------------------------------------------------------
    sum                       35404.0  237.26        18139.7  207.65   2.0
    ------------------------------------------------------------------------

 residuum convergence criterium   :  0.10E-04


 integral neglect threshold       :  0.17E-11
 integral storage threshold THIZE :  0.10E-04
 integral storage threshold THIME :         5


 WARNING : cannot change filename for statistics 
  
           ------------------
           density functional
           ------------------
 PBE functional
 exchange:    LDA + PBE
 correlation: LDA (PW) + PBE
 iterations will be done with small grid
  
 spherical integration : Lebedev's spherical grid
 spherical gridsize    :           5
    i.e. gridpoints    :         590
 value for diffuse not defined
 radial integration    : Chebyshev 2nd kind (scaling 3)
 radial gridsize       :           8
 integration cells     :          22
 partition function    : becke
 partition sharpness   :           3
  
 preparing numerical integration ....
          Overall gridpoints after grid construction =         95049

 Calculating ground state density on molecular grid

 Integral of ground state density: N =   58.00000897896586    



          IRREP   tensor space dimension   number of roots

           a             41557                   1
 number of passes:    1
 
 Number of eigenvalues < 6e-3:            0
 
 
            -----------------------------
            Complex frequency integration
            -----------------------------
 
 Number of Clenshaw-Curtis nodes:          200
 Optimized scaling parameter    :    2.01857069224399     
 Sensitivity measure            :  -5.702358724102297E-011
 
 Contributions to RI integral batches: 
  neglected integral batches:       11419
  direct contribution:              57959
  memory contribution:           0

 maximum number of Davidson iterations set to   25


 logfile dipl_a    exists already

 found      1 converged vectors on dipl_a   
 read       1 vectors from logfile dipl_a   


                    ------------------

                     CPKS equations   

                    ------------------


                       Block Davidson iteration


 total number of roots to be determined:   1


 maximum core memory set to 20000 MB,
 corresponding to      698 vectors in CAO basis


 maximum number of simultaneously treated vectors (including degeneracy):        1


 Iteration IRREP Converged      Max. Euclidean
                 roots          residual norm

    1       a        0        6.741626813911361D-01
 
    2       a        0        6.033562900910154D-02
 
    3       a        0        1.837887831033159D-02
 
    4       a        0        5.499702701570395D-03
 
    5       a        0        1.555093277058614D-03
 
    6       a        0        3.405767670098606D-04
 
    7       a        0        9.814756808005013D-05
 
    8       a        0        2.980159784430063D-05
 
    9       a        1        6.781268531860359D-06
 

 converged!


 Switching to fine grid

 preparing numerical integration ....
          Overall gridpoints after grid construction =        317753

 Calculating ground state density on molecular grid

 Integral of ground state density: N =   57.99999298816583    



 Iteration IRREP Converged      Max. Euclidean
                 roots          residual norm

   10       a        0        1.085037593576863D-04
 

 NOTE: Residual norms are larger than 1.00D-05 due to mgrid option!

 Eigenpairs written on logfile dipl_a   



 IRREP   Vector     Frequency            Euclidean residual norm

  a         1    0.000000000000000D+00    1.085037593576863D-04
 

                    -------------------

                     relaxed densities 

                    -------------------

    ----------------------------------------
     S+T+V CONTRIBUTIONS TO ENERGY GRADIENT 
    ----------------------------------------

 1e-integral 1st. derivatives will be neglected if expon. factor < 0.100000E-10


    -----------------------------------------------
     TWO ELECTRON CONTRIBUTIONS TO ENERGY GRADIENT 
    -----------------------------------------------

 setting up bound for integral derivative estimation

 increment for numerical differentiation : 0.00050000

 biggest AO integral is expected to be     4.326262612
 biggest cartesian 1st derivative AO integral is expected to be    10.955366071

 biggest 1-particle AO density matrix element is expected to be    1.9665958893

 core memory to be involved in 2e-gradient :
   symmetry shell pair data              :         1
   two particle density+dens. estimates  :    684034
   derivative integrals                  :   3753794
   ij-primitive data                     :       900
   derivative integral bound             :    208134
   totally                               :   3962826


 setting up bound for integral derivative estimation

 increment for numerical differentiation : 0.00050000

 biggest AO integral is expected to be     4.326262612
 biggest cartesian 1st derivative AO integral is expected to be    10.955366071

 2e-integral 1st. derivatives will be neglected if expon. factor < 0.935762E-20
 outer boundary for 2e-integral derivative neglection is 0.403259E-21

 Integrated ground state density     :   57.99999298816581    


          ------------------------------------------------
           cartesian gradient of the energy (hartree/bohr)
          ------------------------------------------------

  ATOM      1 c           2 c           3 n           4 c           5 c 
dE/dx -0.3023248D-07  0.7810878D-06  0.1149400D-06 -0.2901629D-05  0.1125099D-05
dE/dy  0.1092869D-05 -0.2558491D-05  0.8434723D-07  0.5966793D-06 -0.5047293D-06
dE/dz -0.1648639D-06  0.1744882D-05  0.9528540D-07  0.1524438D-05  0.7341294D-08

  ATOM      6 c           7 c           8 h           9 h          10 h 
dE/dx  0.1456144D-05 -0.8533407D-06 -0.1403553D-06 -0.3434733D-07  0.8004504D-06
dE/dy  0.1933913D-05 -0.2952330D-06 -0.3200859D-06 -0.1100055D-06 -0.5212066D-06
dE/dz  0.1750075D-05  0.1449116D-06  0.1257219D-07  0.1354517D-06 -0.1666506D-06

  ATOM     11 h          12 h          13 h          14 h          15 h 
dE/dx -0.9425911D-06 -0.5866043D-07  0.1318921D-05  0.1221602D-05 -0.9252312D-06
dE/dy  0.7569164D-06  0.1535577D-05 -0.8088859D-06  0.3442573D-06 -0.3407994D-06
dE/dz -0.1294188D-05 -0.1231135D-06 -0.2317203D-06 -0.1116596D-05 -0.3473063D-06

  ATOM     16 h          17 h          18 h          19 h          20 h 
dE/dx  0.2061230D-06 -0.2057576D-06 -0.2490366D-06 -0.1264145D-05  0.3525642D-06
dE/dy  0.6136271D-07  0.4610124D-06 -0.1093134D-05 -0.8946262D-06  0.8932075D-07
dE/dz -0.6896858D-07 -0.1881155D-06 -0.1147452D-05 -0.3466151D-06 -0.1658381D-07

  ATOM     21 h          22 h 
dE/dx -0.1781563D-06  0.2238755D-06
dE/dy -0.1379727D-06  0.8257223D-06
dE/dz -0.1131023D-07 -0.1873513D-06
 
 resulting FORCE  (fx,fy,fz) = (-.183D-06,0.197D-06,0.412D-08)
 resulting MOMENT (mx,my,mz) = (-.223D-05,0.358D-05,0.427D-05)


 **********************************************************************
  |maximum component of gradient| : 0.29016290E-05  (atom  4 c )       
   gradient norm                  : 0.72952649E-05
 **********************************************************************

 exx =      -0.000002 eyy =      -0.000004 ezz =      -0.000001
 eyz =       0.000000 exz =      -0.000001 exy =       0.000001

   ***  cartesian gradients written onto <gradient>  ***
 
 
 
 ==============================================================================
                           electrostatic moments
 ==============================================================================

 reference point for electrostatic moments:    0.00000   0.00000   0.00000

 
              nuc           gs,e       ->  gs,tot          rpa       ->  total
 ------------------------------------------------------------------------------
                          charge      
 ------------------------------------------------------------------------------
          58.000000     -58.000000       0.000000      -0.000000       0.000000
 
 ------------------------------------------------------------------------------
                       dipole moment  
 ------------------------------------------------------------------------------
   x      -0.000187       0.000259       0.000071      -0.000082      -0.000010
   y      -0.000371       0.000388       0.000017      -0.000018      -0.000001
   z      -0.185868      -0.020596      -0.206464      -0.066164      -0.272629
 
   | dipole moment | =     0.2726 a.u. =     0.6930 debye 
 
 ------------------------------------------------------------------------------
                     quadrupole moment
 ------------------------------------------------------------------------------
  xx     422.922943    -457.931807     -35.008864       0.439740     -34.569124
  yy     422.928126    -457.936872     -35.008746       0.439546     -34.569200
  zz      72.077489    -109.155536     -37.078047       0.642270     -36.435777
  xy       0.003930      -0.003999      -0.000069       0.000088       0.000019
  xz      -0.000781       0.000702      -0.000079      -0.000000      -0.000079
  yz       0.001603      -0.001777      -0.000174       0.000212       0.000038
 
     1/3  trace=     -35.191367
     anisotropy=       1.866615
 
 ==============================================================================
 

    ------------------------------------------------------------------------
    Rirpa profiling                cpu                    wall         ratio
    ------------------------------------------------------------------------
    module                         sec     %               sec     %
    ------------------------------------------------------------------------
    RIRPA                    113560.7  100.00        69730.9  100.00   1.6
    RIRPA_energy              14922.2   13.14         8735.8   12.53   1.7
    ccmkbaoi                   1351.3    1.19          135.8    0.19  10.0
    ecrpa                      5643.2    4.97          711.2    1.02   7.9
    tread                       588.8    0.52           97.9    0.14   6.0
    tqbuild                    4603.9    4.05          531.8    0.76   8.7
    trpaln                      367.1    0.32           38.4    0.06   9.6
    ehxx                       7862.7    6.92         7850.8   11.26   1.0
    RIRPA_grad                98638.5   86.86        60995.1   87.47   1.6
    rirhs                     36136.0   31.82         4079.0    5.85   8.9
    respon                     3799.7    3.35          563.6    0.81   6.7
    rparelax                    979.6    0.86          122.2    0.18   8.0
    egdfin                    57242.6   50.41        56180.5   80.57   1.0
    ------------------------------------------------------------------------
    sum                      345855.7  304.56       209821.1  300.90   1.6
    ------------------------------------------------------------------------


    ------------------------------------------------------------------------
         total  cpu-time :   1 days  7 hours 32 minutes and 43 seconds
         total wall-time : 19 hours 22 minutes and 11 seconds
    ------------------------------------------------------------------------


   ****  rirpa : all done  ****


    2016-02-15 20:57:41.248 

                                 ****   rirpa : all done  ****
fine, there is no data group "$actual step"
script actual: unknown actual step rirpa
next step = unknown
 energy change  : actual value =   0.3870E-07 threshold =   0.1000E-06
 geom. gradient : actual value =   0.1498E-04 threshold =   0.1000E-03

CONVERGENCY CRITERIA FULFILLED IN CYCLE 9

