           Doing BLAS/Lapack in the master proc. with  8 CPUs.
           SMPCPUS    set: Shared-memory Parallelization with   8 CPUs.

           SMP Parallelization Reference:
           C. van Wullen, J. Comput. Chem. 32 (2011) 1195--1201
 operating system is UNIX !

 ridft (c-18-313.gp.local) : TURBOMOLE V7.2 ( 21454 ) 4 Oct 2017 at 12:48:15
 Copyright (C) 2017 TURBOMOLE GmbH, Karlsruhe


    2018-04-28 20:59:54.149 



                                  r i d f t

                        DFT program with RI approximation 
                                for coulomb part 




                                                 
                                 References:     
                                                 
          TURBOMOLE:                             
              R. Ahlrichs, M. Baer, M. Haeser, H. Horn, and
              C. Koelmel
              Electronic structure calculations on workstation
              computers: the program system TURBOMOLE
              Chem. Phys. Lett. 162: 165 (1989)
          Density Functional:                              
              O. Treutler and R. Ahlrichs                      
              Efficient Molecular Numerical Integration Schemes
              J. Chem. Phys. 102: 346 (1995)                   
          Parallel Version:                                
              Performance of parallel TURBOMOLE for Density    
              Functional Calculations                          
              M. v. Arnim and R. Ahlrichs                      
              J. Comp. Chem. 19: 1746 (1998)                   
          RI-J Method:                                     
              Auxiliary Basis Sets to approximate Coulomb      
              Potentials                                       
              Chem. Phys. Lett. 240: 283 (1995)                
              K. Eichkorn, O. Treutler, H. Oehm, M. Haeser     
              and R. Ahlrichs                                  
              Chem. Phys. Lett. 242: 652 (1995)                
                                                           
              Auxiliary Basis Sets for Main Row Atoms and their
              Use to approximate Coulomb Potentials            
              K. Eichkorn, F. Weigend, O. Treutler and         
              R. Ahlrichs                                      
              Theo. Chem. Acc. 97: 119 (1997)                   
                                                           
              Accurate Coulomb-fitting basis sets for H to Rn 
              F. Weigend                                        
              Phys. Chem. Chem. Phys. 8: 1057 (2006)            
                                                           
          Multipole accelerated RI-J (MARI-J):             
              Fast evaluation of the Coulomb potential for     
              electron densities using multipole accelerated   
              resolution of identity approximation             
              M. Sierka, A. Hogekamp and R. Ahlrichs           
              J. Chem. Phys. 118: 9136 (2003)                  
          RI-JK Method:                                     
              A fully direct RI-HF algorithm: Implementation,
              optimised auxiliary basis sets, demonstration of
              accuracy and efficiency                         
              F. Weigend                                      
              Phys. Chem. Chem. Phys. 4: 4285 (2002)           
          Two-component HF and DFT with spin-orbit coupling:  
              Self-consistent treatment of spin-orbit         
              interactions with efficient Hartree-Fock and    
              density functional methods                      
              M. K. Armbruster, F. Weigend, C. van Wüllen and 
              W. Klopper                                      
              Phys. Chem. Chem. Phys. 10: 1748 (2008)         
          Relativistic all-electron 2c calculations           
              An efficient implementation of two-component    
              relativistic exact-decoupling methods for large 
              molecules                                       
              D. Peng, N. Middendorf, F. Weigend, M. Reiher   
              J. Chem. Phys. 138, 184105 (2013)               
                                         




              +--------------------------------------------------+
              |      general information about current run       |
              +--------------------------------------------------+

 

 DENSITY CONVERGENCE CHECK SWITCHED ON !
 SCF CONVERGENCE IF RMS(delta[D]) <     0.1000000000E-06

 TPSS meta-GGA functional
 exchange:    LDA + TPSS
 correlation: LDA (PW) + TPSS
 A DFT calculation using the RI-J approximation will be carried out.
 Allocatable memory for RI due to $ricore (MB):                  5000


              +--------------------------------------------------+
              | Atomic coordinate, charge and isotop information |
              +--------------------------------------------------+

                    atomic coordinates            atom    charge  isotop
         -1.48638681    0.08535598   -0.01358547    o      8.000     0
          0.33581713    0.02399177   -0.01291701    h      1.000     0
         -2.35836109   -2.43828252    0.00204775    c      6.000     0
         -4.41114509   -2.37897075    0.00041801    h      1.000     0
         -1.74982167   -3.49555511   -1.66380065    h      1.000     0
         -1.75182872   -3.47419135    1.68200086    h      1.000     0
 
       center of nuclear mass  :   -1.86456810   -1.16470493   -0.00583654
       center of nuclear charge:   -1.86767997   -1.29286515   -0.00503867

              +--------------------------------------------------+
              |               basis set information              |
              +--------------------------------------------------+

              we will work with the 1s 3p 5d 7f 9g ... basis set
              ...i.e. with spherical basis functions...

   type   atoms  prim   cont   basis
   ---------------------------------------------------------------------------
    o        1     77     55   cc-pVQZ   [5s4p3d2f1g|21s6p3d2f1g]
    h        4     32     30   cc-pVQZ   [4s3p2d1f|6s3p2d1f]
    c        1     77     55   cc-pVQZ   [5s4p3d2f1g|21s6p3d2f1g]
   ---------------------------------------------------------------------------
   total:    6    282    230
   ---------------------------------------------------------------------------

   total number of primitive shells          :   78
   total number of contracted shells         :   70
   total number of cartesian basis functions :  280
   total number of SCF-basis functions       :  230


 integral neglect threshold       :  0.12E-12
 integral storage threshold THIZE :  0.10E-04
 integral storage threshold THIME :         5

 RI-J AUXILIARY BASIS SET information:

              we will work with the 1s 3p 5d 7f 9g ... basis set
              ...i.e. with spherical basis functions...

   type   atoms  prim   cont   basis
   ---------------------------------------------------------------------------
    o        1     70     49   cc-pVQZ   [6s4p3d1f1g|12s5p4d2f1g]
    h        4     16     11   cc-pVQZ   [3s1p1d|5s2p1d]
    c        1     70     49   cc-pVQZ   [6s4p3d1f1g|12s5p4d2f1g]
   ---------------------------------------------------------------------------
   total:    6    204    142
   ---------------------------------------------------------------------------

   total number of primitive shells          :   56
   total number of contracted shells         :   50
   total number of cartesian basis functions :  170
   total number of SCF-basis functions       :  142


 symmetry group of the molecule :   c1 

 the group has the following generators :
   c1(z)

    1 symmetry operations found

 there are 1 real representations :   a   

 maximum number of shells which are related by symmetry :  1


    mo occupation :
   irrep   mo's   occupied
    a      230        9
 
 number of basis functions   :                    230
 number of occupied orbitals :                      9
 
  
           ------------------
           density functional
           ------------------
 TPSS meta-GGA functional
 exchange:    LDA + TPSS
 correlation: LDA (PW) + TPSS

 iterations will be done with small grid
  
 spherical integration : Lebedev's spherical grid
 spherical gridsize    :                     5
    i.e. gridpoints    :                   590
 value for diffuse not defined
 radial integration    : Chebyshev 2nd kind (scaling 3)
 radial gridsize       :                     8
 integration cells     :                     6
 partition function    : becke
 partition sharpness   :                     3
  

 biggest AO integral is expected to be     4.785886462
  
           ------------------------
               RI-J - INFORMATION
           ------------------------
 Contributions to RI integral batches: 
  neglected integral batches:                    21
  direct contribution:                            0
  memory contribution:                  2464
 Memory core needed for (P|Q) and Cholesky      1 MByte
 Memory core minimum needed except of (P|Q)     1 MByte
 Total minimum memory core needed (sum)         1 MByte
  
 ****************************************
 Memory allocated for RI-J    52 MByte
 ****************************************
                                            

          ------------------------
          nuclear repulsion energy  :   40.4232634302    
          ------------------------


         -----------------
         -S,T+V- integrals
         -----------------

 1e-integrals will be neglected if expon. factor < 0.119356E-13
 Difference densities >>NOT<< switched on in parallel ridft!

 DIIS switched on: error vector is FDS-SDF
 Max. Iterations for DIIS is     :   4
 DIIS matrix (see manual) 
    Scaling factor of diagonals  :  1.200
    threshold for scaling factor :  0.000

 scf convergence criterion : increment of total energy < .1000000D-08
                  and increment of one-electron energy < .1000000D-05

  MOs are in ASCII format !


 automatic virtual orbital shift switched on 
      shift if e(lumo)-e(homo) < 0.10000000    


 reading orbital data $scfmo  from file mos
 orbital characterization : expanded
 mo provided and orthogonalized by Cholesky decomposition

 DSCF restart information will be dumped onto file mos


 Starting SCF iterations

          Overall gridpoints after grid construction =         27138

 ITERATION  ENERGY          1e-ENERGY        2e-ENERGY     RMS[dD(SAO)]   TOL
   1  -115.33660326644    -236.39347765     80.633610954    0.000D+00 0.119D-12
                            Exc = -15.4154783425     Coul =  96.0490892966    
                              N = 17.999991588    
                            current damping = 0.700
 
          max. resid. norm for Fia-block=  3.077D-01 for orbital      1a         
          max. resid. fock norm         =  1.260D+01 for orbital    209a         

 ITERATION  ENERGY          1e-ENERGY        2e-ENERGY     RMS[dD(SAO)]   TOL
   2  -115.70763883118    -236.63381267     80.502910404    0.498D-02 0.119D-12
                            Exc = -15.4110959538     Coul =  95.9140063580    
                              N = 17.999996462    
                            current damping = 0.650
 
          Norm of current diis error:  1.6630    
          max. resid. norm for Fia-block=  1.381D-01 for orbital      1a         
          max. resid. fock norm         =  2.114D-01 for orbital    221a         

 ITERATION  ENERGY          1e-ENERGY        2e-ENERGY     RMS[dD(SAO)]   TOL
   3  -115.77012976733    -237.24379915     81.050405949    0.253D-02 0.119D-12
                            Exc = -15.5181083137     Coul =  96.5685142627    
                              N = 17.999997788    
                            current damping = 0.600
 
          Norm of current diis error: 0.78129    
          max. resid. norm for Fia-block=  5.465D-02 for orbital      1a         
          max. resid. fock norm         =  5.694D-02 for orbital      1a         

 ITERATION  ENERGY          1e-ENERGY        2e-ENERGY     RMS[dD(SAO)]   TOL
   4  -115.78894293470    -237.01879404     80.806587678    0.157D-02 0.119D-12
                            Exc = -15.5066594829     Coul =  96.3132471611    
                              N = 17.999999386    
                            current damping = 0.650
 
          Norm of current diis error: 0.29863    
          max. resid. norm for Fia-block=  2.207D-02 for orbital      4a         
          max. resid. fock norm         =  3.848D-02 for orbital    212a         

 ITERATION  ENERGY          1e-ENERGY        2e-ENERGY     RMS[dD(SAO)]   TOL
   5  -115.79208396731    -237.29965850     81.084311105    0.641D-03 0.119D-12
                            Exc = -15.5477746617     Coul =  96.6320857666    
                              N = 17.999999678    
                            current damping = 0.700
 
          Norm of current diis error: 0.12775    
          max. resid. norm for Fia-block=  9.382D-03 for orbital      8a         
          max. resid. fock norm         =  1.211D-02 for orbital    212a         
          mo-orthogonalization: Cholesky decomposition

 ITERATION  ENERGY          1e-ENERGY        2e-ENERGY     RMS[dD(SAO)]   TOL
   6  -115.79273299491    -237.21724163     81.001245204    0.411D-03 0.119D-12
                            Exc = -15.5417528778     Coul =  96.5429980820    
                              N = 17.999999957    
                            current damping = 0.750
 
          Norm of current diis error: 0.49163E-01
          max. resid. norm for Fia-block=  3.610D-03 for orbital      4a         
          max. resid. fock norm         =  7.734D-03 for orbital    212a         

 ITERATION  ENERGY          1e-ENERGY        2e-ENERGY     RMS[dD(SAO)]   TOL
   7  -115.79283438670    -237.24262063     81.026522817    0.145D-03 0.119D-12
                            Exc = -15.5459511908     Coul =  96.5724740082    
                              N = 18.000000036    
                            current damping = 0.800
 
          Norm of current diis error: 0.20250E-01
          max. resid. norm for Fia-block=  1.513D-03 for orbital      4a         
          max. resid. fock norm         =  3.485D-03 for orbital    212a         

 ITERATION  ENERGY          1e-ENERGY        2e-ENERGY     RMS[dD(SAO)]   TOL
   8  -115.79285266769    -237.24531261     81.029196515    0.677D-04 0.119D-12
                            Exc = -15.5468579108     Coul =  96.5760544258    
                              N = 18.000000072    
                            current damping = 0.650
 
          Norm of current diis error: 0.90961E-02
          max. resid. norm for Fia-block=  6.932D-04 for orbital      4a         
          max. resid. fock norm         =  1.693D-03 for orbital    212a         

 ITERATION  ENERGY          1e-ENERGY        2e-ENERGY     RMS[dD(SAO)]   TOL
   9  -115.79285657999    -237.24843143     81.032311423    0.326D-04 0.119D-12
                            Exc = -15.5474961226     Coul =  96.5798075458    
                              N = 18.000000089    
                            current damping = 0.500
 
          Norm of current diis error: 0.35561E-02
          max. resid. norm for Fia-block=  2.794D-04 for orbital      8a         
          max. resid. fock norm         =  6.407D-04 for orbital    212a         

 ITERATION  ENERGY          1e-ENERGY        2e-ENERGY     RMS[dD(SAO)]   TOL
  10  -115.79285721182    -237.24726169     81.031141044    0.161D-04 0.119D-12
                            Exc = -15.5474790808     Coul =  96.5786201248    
                              N = 18.000000099    
                            current damping = 0.550
 
          Norm of current diis error: 0.15417E-02
          max. resid. norm for Fia-block=  1.198D-04 for orbital      5a         
          max. resid. fock norm         =  3.136D-04 for orbital    212a         
          mo-orthogonalization: Cholesky decomposition

 ITERATION  ENERGY          1e-ENERGY        2e-ENERGY     RMS[dD(SAO)]   TOL
  11  -115.79285728920    -237.24933921     81.033218488    0.359D-05 0.119D-12
                            Exc = -15.5477654450     Coul =  96.5809839333    
                              N = 18.000000099    
                            current damping = 0.600
 
          Norm of current diis error: 0.69290E-03
          max. resid. norm for Fia-block=  4.463D-05 for orbital      8a         
          max. resid. fock norm         =  7.846D-05 for orbital    223a         

 ITERATION  ENERGY          1e-ENERGY        2e-ENERGY     RMS[dD(SAO)]   TOL
  12  -115.79285730662    -237.24884115     81.032720414    0.217D-05 0.119D-12
                            Exc = -15.5477161073     Coul =  96.5804365210    
                              N = 18.000000101    
                            current damping = 0.650
 
          Norm of current diis error: 0.15851E-03
          max. resid. norm for Fia-block=  1.261D-05 for orbital      8a         
          max. resid. fock norm         =  3.853D-05 for orbital    223a         

 ITERATION  ENERGY          1e-ENERGY        2e-ENERGY     RMS[dD(SAO)]   TOL
  13  -115.79285730781    -237.24877813     81.032657395    0.659D-06 0.119D-12
                            Exc = -15.5477149480     Coul =  96.5803723429    
                              N = 18.000000101    
                            current damping = 0.500
 
          Norm of current diis error: 0.66620E-04
          max. resid. norm for Fia-block=  5.133D-06 for orbital      4a         
          max. resid. fock norm         =  1.644D-05 for orbital    223a         

 ITERATION  ENERGY          1e-ENERGY        2e-ENERGY     RMS[dD(SAO)]   TOL
  14  -115.79285730804    -237.24881182     81.032691081    0.268D-06 0.119D-12
                            Exc = -15.5477200578     Coul =  96.5804111387    
                              N = 18.000000101    
                            current damping = 0.550
 
          Norm of current diis error: 0.23273E-04
          max. resid. norm for Fia-block=  1.791D-06 for orbital      4a         
          max. resid. fock norm         =  6.305D-06 for orbital    223a         

 ENERGY & DENSITY CONVERGED !

          Overall gridpoints after grid construction =         90986

 ITERATION  ENERGY          1e-ENERGY        2e-ENERGY     RMS[dD(SAO)]   TOL
  15  -115.79284471655    -237.24881179     81.032703641    0.852D-07 0.119D-12
                            Exc = -15.5477084826     Coul =  96.5804121241    
                              N = 17.999999803    
                            current damping = 0.600
 
          Norm of current diis error: 0.80179E-05
          max. resid. norm for Fia-block=  6.535D-07 for orbital      8a         
          max. resid. fock norm         =  2.207D-06 for orbital    223a         

 End of SCF iterations

   convergence criteria satisfied after    15 iterations


                  ------------------------------------------ 
                 |  total energy      =   -115.79284471655  |
                  ------------------------------------------ 
                 :  kinetic energy    =    115.37542692789  :
                 :  potential energy  =   -231.16827164443  :
                 :  virial theorem    =      1.99639513314  :
                 :  wavefunction norm =      1.00000000000  :
                  .......................................... 


 <geterg> : there is no data group $energy 


 <skperg> : $end is missing 


 orbitals $scfmo  will be written to file mos

    irrep                  5a          6a          7a          8a          9a   
 eigenvalues H         -0.46437    -0.39760    -0.38446    -0.29823    -0.23248
            eV         -12.6363    -10.8193    -10.4619     -8.1154     -6.3262
 occupation              2.0000      2.0000      2.0000      2.0000      2.0000 

    irrep                 10a         11a         12a         13a         14a   
 eigenvalues H          0.00842     0.04365     0.08894     0.08899     0.11948
            eV           0.2292      1.1878      2.4203      2.4217      3.2512
 
 
 
 
 ==============================================================================
                           electrostatic moments
 ==============================================================================

 reference point for electrostatic moments:    0.00000   0.00000   0.00000

 
              nuc           elec       ->  total
 ------------------------------------------------------------------------------
                          charge      
 ------------------------------------------------------------------------------
          18.000000     -18.000000      -0.000000
 
 ------------------------------------------------------------------------------
                       dipole moment  
 ------------------------------------------------------------------------------
   x     -33.618239      33.998317       0.380077
   y     -23.271573      22.779657      -0.491916
   z      -0.090696       0.093798       0.003102
 
   | dipole moment | =     0.6217 a.u. =     1.5801 debye 
 
 ------------------------------------------------------------------------------
                     quadrupole moment
 ------------------------------------------------------------------------------
  xx      76.747722     -86.130037      -9.382315
  yy      65.678603     -75.188872      -9.510269
  zz       5.599028     -15.863171     -10.264143
  xy      56.191956     -54.946336       1.245620
  xz       0.091165      -0.103565      -0.012399
  yz      -0.068225       0.070112       0.001887
 
     1/3  trace=      -9.718909
     anisotropy=       2.310052
 
 ==============================================================================
 


    ------------------------------------------------------------------------
         total  cpu-time :  1 minutes and 50 seconds
         total wall-time :   9.47 seconds
    ------------------------------------------------------------------------

   ****  ridft : all done  ****


    2018-04-28 21:00:03.612 

