
   OpenMP run-time library returned nthreads = 28

 ricc2 (c-16-37) : TURBOMOLE V7.3 ( 22142 ) 4 Jul 2018 at 18:12:42
 Copyright (C) 2018 TURBOMOLE GmbH, Karlsruhe


    2019-04-01 23:55:33.523 



                              R I C C 2 - PROGRAM

                          the quantum chemistry groups
                             at the universities in
                           Karlsruhe, Bochum & Mainz
                                   Germany



   *-----------------------------------------------------------------------*
   |                     program will use 28 thread(s)                     |
   *-----------------------------------------------------------------------*


              +--------------------------------------------------+
              | Atomic coordinate, charge and isotop information |
              +--------------------------------------------------+

                    atomic coordinates            atom    charge  isotop
          1.14665739    2.51413293    0.59797456    c      6.000     0
          2.35554071    4.16167648    0.62427540    h      1.000     0
          2.11287380    0.16487645    1.29468260    c      6.000     0
          4.06301990   -0.00734496    1.87793091    h      1.000     0
          0.55350511   -1.95792138    1.26442949    c      6.000     0
          1.30107051   -3.78126921    1.80540272    h      1.000     0
         -1.97066638   -1.73233297    0.54459949    c      6.000     0
         -3.17986023   -3.37975298    0.52789316    h      1.000     0
         -2.93585656    0.61859994   -0.15107070    c      6.000     0
         -4.89294495    0.79423126   -0.71308097    h      1.000     0
         -1.37579931    2.74169623   -0.12632505    c      6.000     0
         -2.12334124    4.56493328   -0.66870120    h      1.000     0
          0.79177046   -0.51339860    7.60610416    c      0.000     0
          3.05092420   -0.20357659    7.75069802    o      0.000     0
         -0.30332900   -2.80262221    7.98298803    o      0.000     0
          1.08458198   -3.93855264    8.34777720    h      0.000     0
         -1.13931087    1.45934607    7.00010455    c      0.000     0
         -0.23546541    3.29416876    6.91162234    h      0.000     0
         -1.99497906    1.01866914    5.18085000    h      0.000     0
         -2.62246435    1.44888360    8.42212248    h      0.000     0
 
       center of nuclear mass  :    0.02773396   -0.03120651    3.62508906
       center of nuclear charge:   -0.41171979    0.39159003    0.57141577

              +--------------------------------------------------+
              |               basis set information              |
              +--------------------------------------------------+

              we will work with the 1s 3p 5d 7f 9g ... basis set
              ...i.e. with spherical basis functions...

   type   atoms  prim   cont   basis
   ---------------------------------------------------------------------------
    c        8     50     30   cc-pVTZ   [4s3p2d1f|18s5p2d1f]
    h       10     16     14   cc-pVTZ   [3s2p1d|5s2p1d]
    o        2     50     30   cc-pVTZ   [4s3p2d1f|18s5p2d1f]
   ---------------------------------------------------------------------------
   total:   20    660    440
   ---------------------------------------------------------------------------

   total number of primitive shells          :   60
   total number of contracted shells         :  160
   total number of cartesian basis functions :  500
   total number of SCF-basis functions       :  440


 symmetry group of the molecule :   c1 

 the group has the following generators :
   c1(z)

    1 symmetry operations found

 there are 1 real representations :   a   


   =========================================================================


     restricted closed shell calculation for the wavefunction models:
               MP2        - Second Order Moeller Plesset PT


     global parameters for ricc2 program:

        hard restart (reuse of interm.) :  disabled
        soft restart (reuse of vectors) :  disabled
        threshold for vector function   :    0.100000E-05
        convergence threshold energy    :    0.100000E-06
        linear dependence threshold     :    0.100000E-13
        global print level              :      1
        maximum number of iterations    :   300
        maximum number DIIS vectors     :    10
        max. dim. of reduced space      :   100
        core memory limit (MB)          : *****


     MP2 energy only: Energy will be calculated directly from T2 amplitudes!

     Scratch Directory : 


   =========================================================================

    der. integral neglect threshold  :  0.10E-07
    integral neglect threshold       :  0.67E-11
    integral storage threshold THIZE :  0.10E-04
    integral storage threshold THIME :         5


                  +------------------------------------------+
                  |     Auxiliary basis set information      |
                  +------------------------------------------+

              we will work with the 1s 3p 5d 7f 9g ... basis set
              ...i.e. with spherical basis functions...

   type   atoms  prim   cont   basis
   ---------------------------------------------------------------------------
    c        8     81     81   cc-pVTZ   [8s6p5d3f1g|8s6p5d3f1g]
    h       10     30     30   cc-pVTZ   [4s3p2d1f|4s3p2d1f]
    o        2     81     81   cc-pVTZ   [8s6p5d3f1g|8s6p5d3f1g]
   ---------------------------------------------------------------------------
   total:   20   1110   1110
   ---------------------------------------------------------------------------

   total number of primitive shells          :   56
   total number of contracted shells         :  330
   total number of cartesian basis functions : 1360
   total number of SCF-basis functions       : 1110


 maximum number of shells which are related by symmetry :  1


 The symmetry information takes   1 MB

*---------------------------------------------------------------------*
|               simplified C1 algorithm will be applied               |
*---------------------------------------------------------------------*
  MOs are in ASCII format !


 reading orbital data $scfmo  from file mos
 orbital characterization : scfconv=9



              +--------------------------------------------+
              | list of orbitals that will be kept frozen: |
              +--------------------------------------------+
              |   irrep   index      energy     occ/vir    |
              +--------------------------------------------+
              |   a         1      -11.2345     occupied   |
              |   a         2      -11.2340     occupied   |
              |   a         3      -11.2340     occupied   |
              |   a         4      -11.2327     occupied   |
              |   a         5      -11.2327     occupied   |
              |   a         6      -11.2321     occupied   |
              +--------------------------------------------+



   Molecular Orbital Statistic:
   ============================

   -----------------------------
   orbitals in total:
   -----------------------------
    frozen occupied :      6
    active occupied :     15
    active virtual  :    419
    frozen virtual  :      0
    all together    :    440
   -----------------------------


     time in riccmos       cpu:  6.17 sec    wall:  0.29 sec    ratio: 21.5

     total memory allocated for calculation of (Q|P)**(-1/2) : 15 MiB


     calculation of (P|Q) ...
     time in lp2sym        cpu:  2.50 sec    wall:  0.09 sec    ratio: 27.4


     calculation of the Cholesky decomposition of (P|Q)**(-1) ...
     time in invmetri      cpu:  4.90 sec    wall:  0.18 sec    ratio: 27.8

   threshold for RMS(d[D]) in SCF was     :  0.10E-06
   integral neglect threshold             :  0.67E-11
   derivative integral neglect threshold  :  0.10E-07


   =========================================================================

     Energy of reference wave function is  -230.7797419196000
     Maximum orbital residual is           0.1268981790214E-06


     Number of symmetry-nonredundant auxiliary basis functions:     1110

     Block lengths for integral files:
        frozen occupied (BOI):        1 MiB
        active occupied (BJI):        1 MiB
        active virtual  (BAI):        4 MiB
        frozen virtual  (BGI):        0 MiB
               general  (BTI):        4 MiB

   =========================================================================




   **************************************************************************
   *                                                                        *
   *          OPTIMIZATION OF THE GROUND STATE CLUSTER AMPLITUDES           *
   *                                                                        *
   **************************************************************************


   Iter.   MP2 energy       Norm(Omega)   Norm(t1)  Norm(t2)     cpu    wall
   ...........................................................................
    1   -231.7302968740     ------          0.00000   0.33892    0.43    0.02
   ...........................................................................


     time in total         cpu: 26.18 sec    wall:  0.98 sec    ratio: 26.6


     **********************************************************************
     *                                                                    *
     *   RHF  energy                             :   -230.7797419196      *
     *   MP2 correlation energy (doubles)        :     -0.9505549544      *
     *                                                                    *
     *   Final MP2 energy                        :   -231.7302968740      *
     *                                                                    *
     *    E(S)   =     -0.5938531825      E(T)   =     -0.3567017719      *
     *    E(OS)  =     -0.7127537731      E(SS)  =     -0.2378011813      *
     *                                                                    *
     *   SCS-MP2 energy                          :   -231.7143135078      *
     *   (computed with  C(OS) =   1.2000  and  C(SS) =   0.3333)         *
     *                                                                    *
     *   SOS-MP2 energy                          :   -231.7063218246      *
     *   (computed with  C(OS) =   1.3000)                                *
     *                                                                    *
     *   Norm of MP1 T2 amplitudes               :      0.3389246934      *
     *                                                                    *
     **********************************************************************



    ------------------------------------------------------------------------
         total  cpu-time :  1 minutes and 23 seconds
         total wall-time :   3.24 seconds
    ------------------------------------------------------------------------

   ****  ricc2 : all done  ****


    2019-04-01 23:55:36.721 

