
   OpenMP run-time library returned nthreads = 28
 operating system is UNIX !

 dscf (c-16-23) : TURBOMOLE V7.3 ( 22142 ) 4 Jul 2018 at 18:12:42
 Copyright (C) 2018 TURBOMOLE GmbH, Karlsruhe


    2019-04-01 23:34:09.474 



                             d s c f - program

                   idea & directorship : reinhart ahlrichs
                   program development : marco haeser
                                         michael baer
                           dft version : oliver treutler


                          quantum chemistry group
                          universitaet  karlsruhe
                                  germany




                          References             
                                                 
          TURBOMOLE:                             
              R. Ahlrichs, M. Baer, M. Haeser, H. Horn, and
              C. Koelmel
              Electronic structure calculations on workstation
              computers: the program system TURBOMOLE
              Chem. Phys. Lett. 162: 165 (1989)
          Density Functional:                              
              O. Treutler and R. Ahlrichs                      
              Efficient Molecular Numerical Integration Schemes
              J. Chem. Phys. 102: 346 (1995)                   
          Parallel Version:                                
              Performance of parallel TURBOMOLE for Density    
              Functional Calculations                          
              M. v. Arnim and R. Ahlrichs                      
              J. Comp. Chem. 19: 1746 (1998)                   
                                         




              +--------------------------------------------------+
              | Atomic coordinate, charge and isotop information |
              +--------------------------------------------------+

                    atomic coordinates            atom    charge  isotop
          1.82184790    1.65368669    0.71434225    c      6.000     0
          3.13662339    3.21240370    0.84289774    h      1.000     0
          2.70430597   -0.78070905    0.22486138    c      6.000     0
          4.70451956   -1.10966451   -0.03214918    h      1.000     0
          1.00935500   -2.79233284    0.08015756    c      6.000     0
          1.69501119   -4.68158557   -0.28726103    h      1.000     0
         -1.56909029   -2.36896840    0.41735756    c      6.000     0
         -2.88326856   -3.92992049    0.31013532    h      1.000     0
         -2.45208435    0.06503041    0.90752704    c      6.000     0
         -4.44916378    0.39309349    1.18780806    h      1.000     0
         -0.75673155    2.07828152    1.06127278    c      6.000     0
         -1.43705195    3.95664962    1.48297577    h      1.000     0
         -0.22649344    1.00984960    8.23935934    c      0.000     0
         -1.11124355    2.99301631    7.52266108    o      0.000     0
          0.53546790   -0.83747725    6.65334005    o      0.000     0
          0.21666199   -0.22158983    4.94993098    h      0.000     0
          0.17026268    0.25965273   10.94432427    c      0.000     0
         -0.41548845    1.78907722   12.17262525    h      0.000     0
         -0.91837212   -1.43472103   11.35430246    h      0.000     0
          2.15163566   -0.18657225   11.25616420    h      0.000     0
 
       center of nuclear mass  :    0.00743792    0.15735220    3.92068363
       center of nuclear charge:    0.12648300   -0.35783557    0.56994091

              +--------------------------------------------------+
              |               basis set information              |
              +--------------------------------------------------+

              we will work with the 1s 3p 5d 7f 9g ... basis set
              ...i.e. with spherical basis functions...

   type   atoms  prim   cont   basis
   ---------------------------------------------------------------------------
    c        8     77     55   cc-pVQZ   [5s4p3d2f1g|21s6p3d2f1g]
    h       10     32     30   cc-pVQZ   [4s3p2d1f|6s3p2d1f]
    o        2     77     55   cc-pVQZ   [5s4p3d2f1g|21s6p3d2f1g]
   ---------------------------------------------------------------------------
   total:   20   1090    850
   ---------------------------------------------------------------------------

   total number of primitive shells          :   78
   total number of contracted shells         :  250
   total number of cartesian basis functions : 1050
   total number of SCF-basis functions       :  850


 integral neglect threshold       :  0.32E-13
 integral storage threshold THIZE :  0.10E-04
 integral storage threshold THIME :         5


 DENSITY CONVERGENCE CHECK SWITCHED ON !
 SCF CONVERGENCE IF RMS(delta[D]) <     0.1000000000E-06


 symmetry group of the molecule :   c1 

 the group has the following generators :
   c1(z)

    1 symmetry operations found

 there are 1 real representations :   a   

 maximum number of shells which are related by symmetry :  1


    mo occupation :
   irrep   mo's   occupied
    a      850       21
 
 number of basis functions   :                    850
 number of occupied orbitals :                     21
 

 automatic virtual orbital shift switched on 
      shift if e(lumo)-e(homo) < 0.10000000    


          ------------------------
          nuclear repulsion energy  :   203.605875432    
          ------------------------


         -----------------
         -S,T+V- integrals
         -----------------

 1e-integrals will be neglected if expon. factor < 0.318282E-14
 
   Difference densities algorithm switched on.
   The maximal number of linear combinations of
   difference densities is                    20 .

 DIIS switched on: error vector is FDS-SDF
 Max. Iterations for DIIS is     :   5
 DIIS matrix (see manual) 
    Scaling factor of diagonals  :  1.200
    threshold for scaling factor :  0.000

 scf convergence criterion : increment of total energy < .1000000D-08
                  and increment of one-electron energy < .1000000D-05

  MOs are in ASCII format !


 reading orbital data $scfmo  from file mos
 orbital characterization : scfconv=9

 DSCF restart information will be dumped onto file mos

 
                                              current damping :  0.700
 ITERATION  ENERGY          1e-ENERGY        2e-ENERGY     RMS[dD(SAO)]   TOL
   1  -230.74226627812    -714.63718780     280.28904609    0.000D+00 0.317D-13
          max. resid. norm for Fia-block=  1.029D-01 for orbital      6a         
          max. resid. fock norm         =  2.945D-01 for orbital    718a         
          Delta Eig. =    21.6155128302 eV 
 
                                              current damping :  0.650
 ITERATION  ENERGY          1e-ENERGY        2e-ENERGY     RMS[dD(SAO)]   TOL
   2  -230.78341612591    -713.74601869     279.35672713    0.936D-03 0.208D-13
          Norm of current diis error: 0.59475    
          max. resid. norm for Fia-block=  4.928D-02 for orbital      6a         
          max. resid. fock norm         =  2.256D-01 for orbital    843a         
          Delta Eig. =     9.7973277514 eV 
 
                                              current damping :  0.600
 ITERATION  ENERGY          1e-ENERGY        2e-ENERGY     RMS[dD(SAO)]   TOL
   3  -230.79167428310    -713.85156752     279.45401781    0.404D-03 0.157D-13
          Norm of current diis error: 0.26348    
          max. resid. norm for Fia-block=  2.040D-02 for orbital      6a         
          max. resid. fock norm         =  5.158D-02 for orbital    721a         
          Delta Eig. =     3.7492551863 eV 
 
                                              current damping :  0.650
 ITERATION  ENERGY          1e-ENERGY        2e-ENERGY     RMS[dD(SAO)]   TOL
   4  -230.79339131799    -713.76131132     279.36204457    0.166D-03 0.135D-13
          Norm of current diis error: 0.10595    
          max. resid. norm for Fia-block=  7.709D-03 for orbital      6a         
          max. resid. fock norm         =  1.567D-02 for orbital    692a         
          Delta Eig. =     1.3832138996 eV 
 
                                              current damping :  0.500
 ITERATION  ENERGY          1e-ENERGY        2e-ENERGY     RMS[dD(SAO)]   TOL
   5  -230.79367303296    -713.74741464     279.34786617    0.612D-04 0.124D-13
          Norm of current diis error: 0.44707E-01
          max. resid. norm for Fia-block=  3.010D-03 for orbital      6a         
          max. resid. fock norm         =  7.127D-03 for orbital    729a         
 mo-orthogonalization: Cholesky decomposition
          Delta Eig. =     0.5924535148 eV 
 
                                              current damping :  0.350
 ITERATION  ENERGY          1e-ENERGY        2e-ENERGY     RMS[dD(SAO)]   TOL
   6  -230.79372775450    -713.73877320     279.33917001    0.269D-04 0.114D-13
          Norm of current diis error: 0.16312E-01
          max. resid. norm for Fia-block=  1.082D-03 for orbital     14a         
          max. resid. fock norm         =  2.125D-03 for orbital    550a         
          Delta Eig. =     0.2179432284 eV 
 
                                              current damping :  0.200
 ITERATION  ENERGY          1e-ENERGY        2e-ENERGY     RMS[dD(SAO)]   TOL
   7  -230.79373584218    -713.73515497     279.33554370    0.104D-04 0.106D-13
          Norm of current diis error: 0.48578E-02
          max. resid. norm for Fia-block=  3.341D-04 for orbital     14a         
          max. resid. fock norm         =  5.331D-04 for orbital    550a         
          Delta Eig. =     0.0640519904 eV 
 
                                              current damping :  0.050
 ITERATION  ENERGY          1e-ENERGY        2e-ENERGY     RMS[dD(SAO)]   TOL
   8  -230.79373666567    -713.73427029     279.33465819    0.335D-05 0.975D-14
          Norm of current diis error: 0.10850E-02
          max. resid. norm for Fia-block=  7.503D-05 for orbital     14a         
          max. resid. fock norm         =  9.034D-05 for orbital    550a         
          Delta Eig. =     0.0122508386 eV 
 
                                              current damping :  0.050
 ITERATION  ENERGY          1e-ENERGY        2e-ENERGY     RMS[dD(SAO)]   TOL
   9  -230.79373671757    -713.73386842     279.33425627    0.894D-06 0.907D-14
          Norm of current diis error: 0.17952E-03
          max. resid. norm for Fia-block=  1.275D-05 for orbital     17a         
          max. resid. fock norm         =  1.278D-05 for orbital     17a         
          Delta Eig. =     0.0006784309 eV 
 
                                              current damping :  0.100
 ITERATION  ENERGY          1e-ENERGY        2e-ENERGY     RMS[dD(SAO)]   TOL
  10  -230.79373671947    -713.73390466     279.33429251    0.187D-06 0.868D-14
          Norm of current diis error: 0.47043E-04
          max. resid. norm for Fia-block=  4.410D-06 for orbital     17a         
          max. resid. fock norm         =  4.416D-06 for orbital     17a         
 mo-orthogonalization: Cholesky decomposition
          Delta Eig. =     0.0000941655 eV 

 DENSITY CONVERGED !

 
                                              current damping :  0.150
 ITERATION  ENERGY          1e-ENERGY        2e-ENERGY     RMS[dD(SAO)]   TOL
  11  -230.79373671961    -713.73385496     279.33424280    0.500D-07 0.847D-14
          Norm of current diis error: 0.16803E-04
          max. resid. norm for Fia-block=  9.936D-07 for orbital     17a         
          max. resid. fock norm         =  9.951D-07 for orbital     17a         
          Delta Eig. =     0.0000382636 eV 

 DENSITY CONVERGED !

 
                                              current damping :  0.200
 ITERATION  ENERGY          1e-ENERGY        2e-ENERGY     RMS[dD(SAO)]   TOL
  12  -230.79373671962    -713.73387313     279.33426098    0.125D-07 0.904D-14
          Norm of current diis error: 0.49591E-05
          max. resid. norm for Fia-block=  4.314D-07 for orbital     20a         
          max. resid. fock norm         =  4.315D-07 for orbital     20a         
          Delta Eig. =     0.0000074847 eV 

 ENERGY & DENSITY CONVERGED !

 
                                              current damping :  0.250
 ITERATION  ENERGY          1e-ENERGY        2e-ENERGY     RMS[dD(SAO)]   TOL
  13  -230.79373671961    -713.73386906     279.33425691    0.340D-08 0.908D-14
          max. resid. norm for Fia-block=  1.116D-07 for orbital     21a         
          max. resid. fock norm         =  1.117D-07 for orbital     21a         

 convergence criteria satisfied after    13 iterations


                  ------------------------------------------ 
                 |  total energy      =   -230.79373671961  |
                  ------------------------------------------ 
                 :  kinetic energy    =    230.50205389621  :
                 :  potential energy  =   -461.29579061582  :
                 :  virial theorem    =      1.99873617531  :
                 :  wavefunction norm =      1.00000000000  :
                  .......................................... 


 orbitals $scfmo  will be written to file mos

    irrep                 17a         18a         19a         20a         21a   
 eigenvalues H         -0.50168    -0.49470    -0.49424    -0.33625    -0.33624
            eV         -13.6514    -13.4616    -13.4489     -9.1500     -9.1495
 occupation              2.0000      2.0000      2.0000      2.0000      2.0000 

    irrep                 22a         23a         24a         25a         26a   
 eigenvalues H          0.07038     0.11456     0.12157     0.12215     0.13157
            eV           1.9152      3.1172      3.3082      3.3238      3.5803
 
 
 
 
 ==============================================================================
                           electrostatic moments
 ==============================================================================

 reference point for electrostatic moments:    0.00000   0.00000   0.00000

 
              nuc           elec       ->  total
 ------------------------------------------------------------------------------
                          charge      
 ------------------------------------------------------------------------------
          42.000000     -42.000000       0.000000
 
 ------------------------------------------------------------------------------
                       dipole moment  
 ------------------------------------------------------------------------------
   x       5.312286      -5.309653       0.002633
   y     -15.029094      15.023819      -0.005274
   z      23.937518     -23.928044       0.009474
 
   | dipole moment | =     0.0112 a.u. =     0.0284 debye 
 
 ------------------------------------------------------------------------------
                     quadrupole moment
 ------------------------------------------------------------------------------
  xx     189.209004    -213.005069     -23.796065
  yy     191.182830    -215.071376     -23.888546
  zz      20.648510     -50.726978     -30.078468
  xy       1.224481      -1.116892       0.107589
  xz     -16.461647      15.782742      -0.678905
  yz      21.551091     -20.499793       1.051299
 
     1/3  trace=     -25.921026
     anisotropy=       6.605246
 
 ==============================================================================
 


    ------------------------------------------------------------------------
         total  cpu-time :  4 hours 16 minutes and 10 seconds
         total wall-time : 13 minutes and 23 seconds
    ------------------------------------------------------------------------

   ****  dscf : all done  ****


    2019-04-01 23:47:32.606 

