
   OpenMP run-time library returned nthreads = 28
 operating system is UNIX !

 dscf (c-19-413) : TURBOMOLE V7.3 ( 22142 ) 4 Jul 2018 at 18:12:42
 Copyright (C) 2018 TURBOMOLE GmbH, Karlsruhe


    2019-04-02 15:39:00.771 



                             d s c f - program

                   idea & directorship : reinhart ahlrichs
                   program development : marco haeser
                                         michael baer
                           dft version : oliver treutler


                          quantum chemistry group
                          universitaet  karlsruhe
                                  germany




                          References             
                                                 
          TURBOMOLE:                             
              R. Ahlrichs, M. Baer, M. Haeser, H. Horn, and
              C. Koelmel
              Electronic structure calculations on workstation
              computers: the program system TURBOMOLE
              Chem. Phys. Lett. 162: 165 (1989)
          Density Functional:                              
              O. Treutler and R. Ahlrichs                      
              Efficient Molecular Numerical Integration Schemes
              J. Chem. Phys. 102: 346 (1995)                   
          Parallel Version:                                
              Performance of parallel TURBOMOLE for Density    
              Functional Calculations                          
              M. v. Arnim and R. Ahlrichs                      
              J. Comp. Chem. 19: 1746 (1998)                   
                                         




              +--------------------------------------------------+
              | Atomic coordinate, charge and isotop information |
              +--------------------------------------------------+

                    atomic coordinates            atom    charge  isotop
         -1.33588556    0.08660684    0.01206799    o      8.000     0
          0.50195589    0.13551253    0.00253090    h      1.000     0
         -2.03461270   -2.48294105    0.00305055    c      6.000     0
         -4.08733321   -2.57606667    0.01108405    h      1.000     0
         -1.36703912   -3.48588648   -1.67759209    h      1.000     0
         -1.35319467   -3.50132394    1.66877893    h      1.000     0
          4.15980206   -0.06882548   -0.00630864    n      7.000     0
          4.86017151    0.89073306    1.49249436    h      1.000     0
          4.86040449    0.80864725   -1.55448347    h      1.000     0
          5.06262237   -2.68804910    0.06448278    c      6.000     0
          4.32206736   -3.69721062   -1.56482347    h      1.000     0
          7.11620884   -2.88974934    0.07021714    h      1.000     0
          4.32161087   -3.60783582    1.74564389    h      1.000     0
 
       center of nuclear mass  :    1.46733907   -1.26392650    0.01761114
       center of nuclear charge:    1.54929000   -1.35383457    0.01809538

              +--------------------------------------------------+
              |               basis set information              |
              +--------------------------------------------------+

              we will work with the 1s 3p 5d 7f 9g ... basis set
              ...i.e. with spherical basis functions...

   type   atoms  prim   cont   basis
   ---------------------------------------------------------------------------
    o        1     77     55   cc-pVQZ   [5s4p3d2f1g|21s6p3d2f1g]
    h        9     32     30   cc-pVQZ   [4s3p2d1f|6s3p2d1f]
    c        2     77     55   cc-pVQZ   [5s4p3d2f1g|21s6p3d2f1g]
    n        1     77     55   cc-pVQZ   [5s4p3d2f1g|21s6p3d2f1g]
   ---------------------------------------------------------------------------
   total:   13    596    490
   ---------------------------------------------------------------------------

   total number of primitive shells          :  111
   total number of contracted shells         :  150
   total number of cartesian basis functions :  595
   total number of SCF-basis functions       :  490


 integral neglect threshold       :  0.56E-13
 integral storage threshold THIZE :  0.10E-04
 integral storage threshold THIME :         5


 DENSITY CONVERGENCE CHECK SWITCHED ON !
 SCF CONVERGENCE IF RMS(delta[D]) <     0.1000000000E-06


 symmetry group of the molecule :   c1 

 the group has the following generators :
   c1(z)

    1 symmetry operations found

 there are 1 real representations :   a   

 maximum number of shells which are related by symmetry :  1


    mo occupation :
   irrep   mo's   occupied
    a      490       18
 
 number of basis functions   :                    490
 number of occupied orbitals :                     18
 

 automatic virtual orbital shift switched on 
      shift if e(lumo)-e(homo) < 0.10000000    


          ------------------------
          nuclear repulsion energy  :   131.816176448    
          ------------------------


         -----------------
         -S,T+V- integrals
         -----------------

 1e-integrals will be neglected if expon. factor < 0.561674E-14
 
   Difference densities algorithm switched on.
   The maximal number of linear combinations of
   difference densities is                    20 .

 DIIS switched on: error vector is FDS-SDF
 Max. Iterations for DIIS is     :   5
 DIIS matrix (see manual) 
    Scaling factor of diagonals  :  1.200
    threshold for scaling factor :  0.000

 scf convergence criterion : increment of total energy < .1000000D-08
                  and increment of one-electron energy < .1000000D-05

  MOs are in ASCII format !


 reading orbital data $scfmo  from file mos
 orbital characterization : scfconv=9

 DSCF restart information will be dumped onto file mos

 
                                              current damping :  0.700
 ITERATION  ENERGY          1e-ENERGY        2e-ENERGY     RMS[dD(SAO)]   TOL
   1  -210.32321799503    -547.67446984     205.53507540    0.000D+00 0.560D-13
          max. resid. norm for Fia-block=  1.184D-01 for orbital      1a         
          max. resid. fock norm         =  2.551D-01 for orbital    488a         
          Delta Eig. =    29.9508067079 eV 
 
                                              current damping :  0.650
 ITERATION  ENERGY          1e-ENERGY        2e-ENERGY     RMS[dD(SAO)]   TOL
   2  -210.35757837260    -547.35117385     205.17741903    0.747D-03 0.361D-13
          Norm of current diis error: 0.54351    
          max. resid. norm for Fia-block=  5.401D-02 for orbital      1a         
          max. resid. fock norm         =  9.837D-02 for orbital    490a         
          Delta Eig. =    12.7215066416 eV 
 
                                              current damping :  0.600
 ITERATION  ENERGY          1e-ENERGY        2e-ENERGY     RMS[dD(SAO)]   TOL
   3  -210.36437205481    -547.43410772     205.25355921    0.355D-03 0.272D-13
          Norm of current diis error: 0.23653    
          max. resid. norm for Fia-block=  2.309D-02 for orbital      1a         
          max. resid. fock norm         =  3.811D-02 for orbital    489a         
          Delta Eig. =     5.1789208412 eV 
 
                                              current damping :  0.650
 ITERATION  ENERGY          1e-ENERGY        2e-ENERGY     RMS[dD(SAO)]   TOL
   4  -210.36571747109    -547.41841460     205.23652068    0.160D-03 0.238D-13
          Norm of current diis error: 0.93849E-01
          max. resid. norm for Fia-block=  8.469D-03 for orbital      1a         
          max. resid. fock norm         =  1.428D-02 for orbital    490a         
          Delta Eig. =     1.9040753852 eV 
 
                                              current damping :  0.500
 ITERATION  ENERGY          1e-ENERGY        2e-ENERGY     RMS[dD(SAO)]   TOL
   5  -210.36593177056    -547.41253278     205.23042456    0.614D-04 0.219D-13
          Norm of current diis error: 0.39296E-01
          max. resid. norm for Fia-block=  3.378D-03 for orbital      1a         
          max. resid. fock norm         =  5.551D-03 for orbital    489a         
 mo-orthogonalization: Cholesky decomposition
          Delta Eig. =     0.8041096261 eV 
 
                                              current damping :  0.350
 ITERATION  ENERGY          1e-ENERGY        2e-ENERGY     RMS[dD(SAO)]   TOL
   6  -210.36597312279    -547.41134785     205.22919828    0.288D-04 0.205D-13
          Norm of current diis error: 0.14492E-01
          max. resid. norm for Fia-block=  1.100D-03 for orbital      1a         
          max. resid. fock norm         =  1.858D-03 for orbital    490a         
          Delta Eig. =     0.3022011874 eV 
 
                                              current damping :  0.200
 ITERATION  ENERGY          1e-ENERGY        2e-ENERGY     RMS[dD(SAO)]   TOL
   7  -210.36597951150    -547.41028499     205.22812903    0.119D-04 0.192D-13
          Norm of current diis error: 0.45325E-02
          max. resid. norm for Fia-block=  2.995D-04 for orbital      9a         
          max. resid. fock norm         =  4.832D-04 for orbital    489a         
          Delta Eig. =     0.0868170348 eV 
 
                                              current damping :  0.050
 ITERATION  ENERGY          1e-ENERGY        2e-ENERGY     RMS[dD(SAO)]   TOL
   8  -210.36598027746    -547.41011552     205.22795879    0.433D-05 0.180D-13
          Norm of current diis error: 0.12274E-02
          max. resid. norm for Fia-block=  1.008D-04 for orbital     18a         
          max. resid. fock norm         =  1.029D-04 for orbital     18a         
          Delta Eig. =     0.0167572223 eV 
 
                                              current damping :  0.050
 ITERATION  ENERGY          1e-ENERGY        2e-ENERGY     RMS[dD(SAO)]   TOL
   9  -210.36598035512    -547.40990444     205.22774764    0.141D-05 0.168D-13
          Norm of current diis error: 0.30680E-03
          max. resid. norm for Fia-block=  3.530D-05 for orbital     18a         
          max. resid. fock norm         =  3.581D-05 for orbital     18a         
          Delta Eig. =     0.0013033200 eV 
 
                                              current damping :  0.100
 ITERATION  ENERGY          1e-ENERGY        2e-ENERGY     RMS[dD(SAO)]   TOL
  10  -210.36598036160    -547.40992412     205.22776731    0.401D-06 0.159D-13
          Norm of current diis error: 0.87921E-04
          max. resid. norm for Fia-block=  1.251D-05 for orbital     18a         
          max. resid. fock norm         =  1.293D-05 for orbital     18a         
 mo-orthogonalization: Cholesky decomposition
          Delta Eig. =     0.0002545248 eV 
 
                                              current damping :  0.150
 ITERATION  ENERGY          1e-ENERGY        2e-ENERGY     RMS[dD(SAO)]   TOL
  11  -210.36598036216    -547.40987790     205.22772109    0.119D-06 0.154D-13
          Norm of current diis error: 0.26482E-04
          max. resid. norm for Fia-block=  3.169D-06 for orbital     18a         
          max. resid. fock norm         =  3.263D-06 for orbital     18a         
          Delta Eig. =     0.0002056277 eV 

 DENSITY CONVERGED !

 
                                              current damping :  0.200
 ITERATION  ENERGY          1e-ENERGY        2e-ENERGY     RMS[dD(SAO)]   TOL
  12  -210.36598036220    -547.40989729     205.22774048    0.334D-07 0.151D-13
          Norm of current diis error: 0.10222E-04
          max. resid. norm for Fia-block=  1.236D-06 for orbital     18a         
          max. resid. fock norm         =  1.337D-06 for orbital     18a         
          Delta Eig. =     0.0000642171 eV 

 ENERGY & DENSITY CONVERGED !

 
                                              current damping :  0.250
 ITERATION  ENERGY          1e-ENERGY        2e-ENERGY     RMS[dD(SAO)]   TOL
  13  -210.36598036221    -547.40989146     205.22773465    0.944D-08 0.160D-13
          max. resid. norm for Fia-block=  2.306D-07 for orbital     18a         
          max. resid. fock norm         =  2.367D-07 for orbital     18a         

 convergence criteria satisfied after    13 iterations


                  ------------------------------------------ 
                 |  total energy      =   -210.36598036221  |
                  ------------------------------------------ 
                 :  kinetic energy    =    210.18450631482  :
                 :  potential energy  =   -420.55048667703  :
                 :  virial theorem    =      1.99913734128  :
                 :  wavefunction norm =      1.00000000000  :
                  .......................................... 


 orbitals $scfmo  will be written to file mos

    irrep                 14a         15a         16a         17a         18a   
 eigenvalues H         -0.56556    -0.53653    -0.48192    -0.41803    -0.41624
            eV         -15.3898    -14.5998    -13.1139    -11.3751    -11.3266
 occupation              2.0000      2.0000      2.0000      2.0000      2.0000 

    irrep                 19a         20a         21a         22a         23a   
 eigenvalues H          0.09921     0.13085     0.14911     0.15173     0.18111
            eV           2.6998      3.5607      4.0576      4.1289      4.9284
 
 
 
 
 ==============================================================================
                           electrostatic moments
 ==============================================================================

 reference point for electrostatic moments:    0.00000   0.00000   0.00000

 
              nuc           elec       ->  total
 ------------------------------------------------------------------------------
                          charge      
 ------------------------------------------------------------------------------
          36.000000     -36.000000       0.000000
 
 ------------------------------------------------------------------------------
                       dipole moment  
 ------------------------------------------------------------------------------
   x      55.774440     -54.396791       1.377649
   y     -48.738045      48.255437      -0.482607
   z       0.651434      -0.656196      -0.004762
 
   | dipole moment | =     1.4597 a.u. =     3.7103 debye 
 
 ------------------------------------------------------------------------------
                     quadrupole moment
 ------------------------------------------------------------------------------
  xx     469.923157    -485.045688     -15.122532
  yy     147.985760    -167.159765     -19.174006
  zz      15.770549     -35.307829     -19.537280
  xy     -78.045469      79.325858       1.280389
  xz       2.578680      -2.580536      -0.001856
  yz      -1.740332       1.741853       0.001521
 
     1/3  trace=     -17.944606
     anisotropy=       4.789197
 
 ==============================================================================
 


    ------------------------------------------------------------------------
         total  cpu-time : 24 minutes and 10 seconds
         total wall-time :  1 minutes and 55 seconds
    ------------------------------------------------------------------------

   ****  dscf : all done  ****


    2019-04-02 15:40:56.208 

