           Doing BLAS/Lapack in the master proc. with  8 CPUs.
           SMPCPUS    set: Shared-memory Parallelization with   8 CPUs.

           SMP Parallelization Reference:
           C. van Wullen, J. Comput. Chem. 32 (2011) 1195--1201
 operating system is UNIX !

 ridft (c-18-413.gp.local) : TURBOMOLE V7.2 ( 21454 ) 4 Oct 2017 at 12:48:15
 Copyright (C) 2017 TURBOMOLE GmbH, Karlsruhe


    2018-04-28 20:54:32.892 



                                  r i d f t

                        DFT program with RI approximation 
                                for coulomb part 




                                                 
                                 References:     
                                                 
          TURBOMOLE:                             
              R. Ahlrichs, M. Baer, M. Haeser, H. Horn, and
              C. Koelmel
              Electronic structure calculations on workstation
              computers: the program system TURBOMOLE
              Chem. Phys. Lett. 162: 165 (1989)
          Density Functional:                              
              O. Treutler and R. Ahlrichs                      
              Efficient Molecular Numerical Integration Schemes
              J. Chem. Phys. 102: 346 (1995)                   
          Parallel Version:                                
              Performance of parallel TURBOMOLE for Density    
              Functional Calculations                          
              M. v. Arnim and R. Ahlrichs                      
              J. Comp. Chem. 19: 1746 (1998)                   
          RI-J Method:                                     
              Auxiliary Basis Sets to approximate Coulomb      
              Potentials                                       
              Chem. Phys. Lett. 240: 283 (1995)                
              K. Eichkorn, O. Treutler, H. Oehm, M. Haeser     
              and R. Ahlrichs                                  
              Chem. Phys. Lett. 242: 652 (1995)                
                                                           
              Auxiliary Basis Sets for Main Row Atoms and their
              Use to approximate Coulomb Potentials            
              K. Eichkorn, F. Weigend, O. Treutler and         
              R. Ahlrichs                                      
              Theo. Chem. Acc. 97: 119 (1997)                   
                                                           
              Accurate Coulomb-fitting basis sets for H to Rn 
              F. Weigend                                        
              Phys. Chem. Chem. Phys. 8: 1057 (2006)            
                                                           
          Multipole accelerated RI-J (MARI-J):             
              Fast evaluation of the Coulomb potential for     
              electron densities using multipole accelerated   
              resolution of identity approximation             
              M. Sierka, A. Hogekamp and R. Ahlrichs           
              J. Chem. Phys. 118: 9136 (2003)                  
          RI-JK Method:                                     
              A fully direct RI-HF algorithm: Implementation,
              optimised auxiliary basis sets, demonstration of
              accuracy and efficiency                         
              F. Weigend                                      
              Phys. Chem. Chem. Phys. 4: 4285 (2002)           
          Two-component HF and DFT with spin-orbit coupling:  
              Self-consistent treatment of spin-orbit         
              interactions with efficient Hartree-Fock and    
              density functional methods                      
              M. K. Armbruster, F. Weigend, C. van Wüllen and 
              W. Klopper                                      
              Phys. Chem. Chem. Phys. 10: 1748 (2008)         
          Relativistic all-electron 2c calculations           
              An efficient implementation of two-component    
              relativistic exact-decoupling methods for large 
              molecules                                       
              D. Peng, N. Middendorf, F. Weigend, M. Reiher   
              J. Chem. Phys. 138, 184105 (2013)               
                                         




              +--------------------------------------------------+
              |      general information about current run       |
              +--------------------------------------------------+

 

 DENSITY CONVERGENCE CHECK SWITCHED ON !
 SCF CONVERGENCE IF RMS(delta[D]) <     0.1000000000E-06

 PBE functional
 exchange:    LDA + PBE
 correlation: LDA (PW) + PBE
 A DFT calculation using the RI-J approximation will be carried out.
 Allocatable memory for RI due to $ricore (MB):                  5000


              +--------------------------------------------------+
              | Atomic coordinate, charge and isotop information |
              +--------------------------------------------------+

                    atomic coordinates            atom    charge  isotop
         -2.00633963    2.45124044    0.55191342    c      6.000     0
         -0.67682642    4.29054497    1.00498030    o      8.000     0
         -1.11362225    0.17936857    0.00715982    o      8.000     0
          0.76427263    0.24136077    0.03479333    h      1.000     0
         -4.83472787    2.53705149    0.55984520    c      6.000     0
         -5.47264306    4.43606407    0.97947593    h      1.000     0
         -5.54235751    1.93203795   -1.27177728    h      1.000     0
         -5.55052620    1.21870410    1.96447819    h      1.000     0
 
       center of nuclear mass  :   -2.11050946    2.31997837    0.52066873
       center of nuclear charge:   -2.22410152    2.29741334    0.51483259

              +--------------------------------------------------+
              |               basis set information              |
              +--------------------------------------------------+

              we will work with the 1s 3p 5d 7f 9g ... basis set
              ...i.e. with spherical basis functions...

   type   atoms  prim   cont   basis
   ---------------------------------------------------------------------------
    c        2     50     30   cc-pVTZ   [4s3p2d1f|18s5p2d1f]
    o        2     50     30   cc-pVTZ   [4s3p2d1f|18s5p2d1f]
    h        4     16     14   cc-pVTZ   [3s2p1d|5s2p1d]
   ---------------------------------------------------------------------------
   total:    8    264    176
   ---------------------------------------------------------------------------

   total number of primitive shells          :   60
   total number of contracted shells         :   64
   total number of cartesian basis functions :  200
   total number of SCF-basis functions       :  176


 integral neglect threshold       :  0.17E-12
 integral storage threshold THIZE :  0.10E-04
 integral storage threshold THIME :         5

 RI-J AUXILIARY BASIS SET information:

              we will work with the 1s 3p 5d 7f 9g ... basis set
              ...i.e. with spherical basis functions...

   type   atoms  prim   cont   basis
   ---------------------------------------------------------------------------
    c        2     70     49   cc-pVTZ   [6s4p3d1f1g|12s5p4d2f1g]
    o        2     70     49   cc-pVTZ   [6s4p3d1f1g|12s5p4d2f1g]
    h        4     16     11   cc-pVTZ   [3s1p1d|5s2p1d]
   ---------------------------------------------------------------------------
   total:    8    344    240
   ---------------------------------------------------------------------------

   total number of primitive shells          :   56
   total number of contracted shells         :   80
   total number of cartesian basis functions :  292
   total number of SCF-basis functions       :  240


 symmetry group of the molecule :   c1 

 the group has the following generators :
   c1(z)

    1 symmetry operations found

 there are 1 real representations :   a   

 maximum number of shells which are related by symmetry :  1


    mo occupation :
   irrep   mo's   occupied
    a      176       16
 
 number of basis functions   :                    176
 number of occupied orbitals :                     16
 
  
           ------------------
           density functional
           ------------------
 PBE functional
 exchange:    LDA + PBE
 correlation: LDA (PW) + PBE

 iterations will be done with small grid
  
 spherical integration : Lebedev's spherical grid
 spherical gridsize    :                     5
    i.e. gridpoints    :                   590
 value for diffuse not defined
 radial integration    : Chebyshev 2nd kind (scaling 3)
 radial gridsize       :                     8
 integration cells     :                     8
 partition function    : becke
 partition sharpness   :                     3
  

 biggest AO integral is expected to be     4.866064444
  
           ------------------------
               RI-J - INFORMATION
           ------------------------
 Contributions to RI integral batches: 
  neglected integral batches:                    35
  direct contribution:                            0
  memory contribution:                  2045
 Memory core needed for (P|Q) and Cholesky      1 MByte
 Memory core minimum needed except of (P|Q)     1 MByte
 Total minimum memory core needed (sum)         1 MByte
  
 ****************************************
 Memory allocated for RI-J    45 MByte
 ****************************************
                                            

          ------------------------
          nuclear repulsion energy  :   121.353542001    
          ------------------------


         -----------------
         -S,T+V- integrals
         -----------------

 1e-integrals will be neglected if expon. factor < 0.167098E-13
 Difference densities >>NOT<< switched on in parallel ridft!

 DIIS switched on: error vector is FDS-SDF
 Max. Iterations for DIIS is     :   4
 DIIS matrix (see manual) 
    Scaling factor of diagonals  :  1.200
    threshold for scaling factor :  0.000

 scf convergence criterion : increment of total energy < .1000000D-08
                  and increment of one-electron energy < .1000000D-05

  MOs are in ASCII format !


 automatic virtual orbital shift switched on 
      shift if e(lumo)-e(homo) < 0.10000000    


 reading orbital data $scfmo  from file mos
 orbital characterization : expanded
 mo provided and orthogonalized by Cholesky decomposition

 DSCF restart information will be dumped onto file mos


 Starting SCF iterations

          Overall gridpoints after grid construction =         39432

 ITERATION  ENERGY          1e-ENERGY        2e-ENERGY     RMS[dD(SAO)]   TOL
   1  -227.87971833882    -549.41759539     200.18433505    0.000D+00 0.167D-12
                            Exc = -29.2539100703     Coul =  229.438245116    
                              N = 31.999990826    
                            current damping = 0.700
 
          max. resid. norm for Fia-block=  3.787D-01 for orbital     13a         
          max. resid. fock norm         =  4.656D+00 for orbital    174a         

 ITERATION  ENERGY          1e-ENERGY        2e-ENERGY     RMS[dD(SAO)]   TOL
   2  -228.76727682070    -551.21019048     201.08937165    0.467D-02 0.167D-12
                            Exc = -29.0945800340     Coul =  230.183951688    
                              N = 31.999992497    
                            current damping = 0.650
 
          Norm of current diis error:  1.5511    
          max. resid. norm for Fia-block=  1.522D-01 for orbital      2a         
          max. resid. fock norm         =  3.439D-01 for orbital    173a         

 ITERATION  ENERGY          1e-ENERGY        2e-ENERGY     RMS[dD(SAO)]   TOL
   3  -228.88104228770    -552.53552369     202.30093940    0.299D-02 0.167D-12
                            Exc = -29.2458744607     Coul =  231.546813861    
                              N = 31.999993523    
                            current damping = 0.550
 
          Norm of current diis error: 0.69200    
          max. resid. norm for Fia-block=  6.305D-02 for orbital      2a         
          max. resid. fock norm         =  9.066D-02 for orbital    173a         

 ITERATION  ENERGY          1e-ENERGY        2e-ENERGY     RMS[dD(SAO)]   TOL
   4  -228.91074386629    -552.24852456     201.98423869    0.224D-02 0.167D-12
                            Exc = -29.2017212251     Coul =  231.185959917    
                              N = 31.999993324    
                            current damping = 0.600
 
          Norm of current diis error: 0.28742    
          max. resid. norm for Fia-block=  2.854D-02 for orbital      6a         
          max. resid. fock norm         =  5.082D-02 for orbital    173a         

 ITERATION  ENERGY          1e-ENERGY        2e-ENERGY     RMS[dD(SAO)]   TOL
   5  -228.91490176498    -552.65736884     202.38892507    0.792D-03 0.167D-12
                            Exc = -29.2565872720     Coul =  231.645512344    
                              N = 31.999993118    
                            current damping = 0.650
 
          Norm of current diis error: 0.16683    
          max. resid. norm for Fia-block=  1.062D-02 for orbital     15a         
          max. resid. fock norm         =  1.261D-02 for orbital     17a         
          mo-orthogonalization: Cholesky decomposition

 ITERATION  ENERGY          1e-ENERGY        2e-ENERGY     RMS[dD(SAO)]   TOL
   6  -228.91655930420    -552.66318124     202.39307994    0.560D-03 0.167D-12
                            Exc = -29.2531463222     Coul =  231.646226258    
                              N = 31.999993049    
                            current damping = 0.500
 
          Norm of current diis error: 0.71820E-01
          max. resid. norm for Fia-block=  4.387D-03 for orbital     14a         
          max. resid. fock norm         =  7.609D-03 for orbital    167a         

 ITERATION  ENERGY          1e-ENERGY        2e-ENERGY     RMS[dD(SAO)]   TOL
   7  -228.91683741312    -552.57690772     202.30652831    0.224D-03 0.167D-12
                            Exc = -29.2444774747     Coul =  231.551005782    
                              N = 31.999992871    
                            current damping = 0.550
 
          Norm of current diis error: 0.23116E-01
          max. resid. norm for Fia-block=  1.670D-03 for orbital      5a         
          max. resid. fock norm         =  2.690D-03 for orbital    173a         

 ITERATION  ENERGY          1e-ENERGY        2e-ENERGY     RMS[dD(SAO)]   TOL
   8  -228.91686367974    -552.61328662     202.34288094    0.480D-04 0.167D-12
                            Exc = -29.2496084186     Coul =  231.592489356    
                              N = 31.999992876    
                            current damping = 0.600
 
          Norm of current diis error: 0.65792E-02
          max. resid. norm for Fia-block=  4.048D-04 for orbital      8a         
          max. resid. fock norm         =  6.204D-04 for orbital      9a         

 ITERATION  ENERGY          1e-ENERGY        2e-ENERGY     RMS[dD(SAO)]   TOL
   9  -228.91686635776    -552.62467809     202.35426973    0.201D-04 0.167D-12
                            Exc = -29.2502925273     Coul =  231.604562262    
                              N = 31.999992865    
                            current damping = 0.450
 
          Norm of current diis error: 0.29403E-02
          max. resid. norm for Fia-block=  2.450D-04 for orbital     16a         
          max. resid. fock norm         =  3.263D-04 for orbital     37a         

 ITERATION  ENERGY          1e-ENERGY        2e-ENERGY     RMS[dD(SAO)]   TOL
  10  -228.91686648812    -552.61792217     202.34751369    0.156D-04 0.167D-12
                            Exc = -29.2497271255     Coul =  231.597240811    
                              N = 31.999992861    
                            current damping = 0.500
 
          Norm of current diis error: 0.27394E-02
          max. resid. norm for Fia-block=  1.629D-04 for orbital     15a         
          max. resid. fock norm         =  2.668D-04 for orbital    167a         
          mo-orthogonalization: Cholesky decomposition

 ITERATION  ENERGY          1e-ENERGY        2e-ENERGY     RMS[dD(SAO)]   TOL
  11  -228.91686682421    -552.61866198     202.34825315    0.517D-05 0.167D-12
                            Exc = -29.2499210452     Coul =  231.598174197    
                              N = 31.999992859    
                            current damping = 0.550
 
          Norm of current diis error: 0.11435E-02
          max. resid. norm for Fia-block=  9.040D-05 for orbital      8a         
          max. resid. fock norm         =  1.135D-04 for orbital    114a         

 ITERATION  ENERGY          1e-ENERGY        2e-ENERGY     RMS[dD(SAO)]   TOL
  12  -228.91686686051    -552.62156944     202.35116058    0.223D-05 0.167D-12
                            Exc = -29.2502444513     Coul =  231.601405034    
                              N = 31.999992860    
                            current damping = 0.400
 
          Norm of current diis error: 0.66078E-03
          max. resid. norm for Fia-block=  2.888D-05 for orbital     10a         
          max. resid. fock norm         =  3.500D-05 for orbital     14a         

 ITERATION  ENERGY          1e-ENERGY        2e-ENERGY     RMS[dD(SAO)]   TOL
  13  -228.91686687926    -552.62079436     202.35038548    0.129D-05 0.167D-12
                            Exc = -29.2501060531     Coul =  231.600491533    
                              N = 31.999992859    
                            current damping = 0.450
 
          Norm of current diis error: 0.16129E-03
          max. resid. norm for Fia-block=  6.150D-06 for orbital     11a         
          max. resid. fock norm         =  1.032D-05 for orbital    173a         

 ITERATION  ENERGY          1e-ENERGY        2e-ENERGY     RMS[dD(SAO)]   TOL
  14  -228.91686688026    -552.62058324     202.35017436    0.252D-06 0.167D-12
                            Exc = -29.2500962771     Coul =  231.600270640    
                              N = 31.999992859    
                            current damping = 0.300
 
          Norm of current diis error: 0.30588E-04
          max. resid. norm for Fia-block=  2.879D-06 for orbital     16a         
          max. resid. fock norm         =  4.276D-06 for orbital    167a         

 ITERATION  ENERGY          1e-ENERGY        2e-ENERGY     RMS[dD(SAO)]   TOL
  15  -228.91686688025    -552.62066219     202.35025331    0.118D-06 0.167D-12
                            Exc = -29.2501055814     Coul =  231.600358892    
                              N = 31.999992859    
                            current damping = 0.350
 
          Norm of current diis error: 0.34955E-04
          max. resid. norm for Fia-block=  1.117D-06 for orbital     15a         
          max. resid. fock norm         =  1.529D-06 for orbital     15a         
          mo-orthogonalization: Cholesky decomposition

 DENSITY CONVERGED !


 ITERATION  ENERGY          1e-ENERGY        2e-ENERGY     RMS[dD(SAO)]   TOL
  16  -228.91686688030    -552.62064641     202.35023753    0.506D-07 0.167D-12
                            Exc = -29.2501037425     Coul =  231.600341272    
                              N = 31.999992859    
                            current damping = 0.400
 
          Norm of current diis error: 0.10490E-04
          max. resid. norm for Fia-block=  4.881D-07 for orbital     15a         
          max. resid. fock norm         =  6.644D-07 for orbital     15a         

 ENERGY & DENSITY CONVERGED !

          Overall gridpoints after grid construction =        127905

 ITERATION  ENERGY          1e-ENERGY        2e-ENERGY     RMS[dD(SAO)]   TOL
  17  -228.91687867201    -552.62063524     202.35021456    0.219D-07 0.167D-12
                            Exc = -29.2501143662     Coul =  231.600328931    
                              N = 32.000000362    
                            current damping = 0.250
 
          Norm of current diis error: 0.13205E-05
          max. resid. norm for Fia-block=  9.185D-08 for orbital     15a         
          max. resid. fock norm         =  1.147D-07 for orbital    114a         

 End of SCF iterations

   convergence criteria satisfied after    17 iterations


                  ------------------------------------------ 
                 |  total energy      =   -228.91687867201  |
                  ------------------------------------------ 
                 :  kinetic energy    =    227.58483815075  :
                 :  potential energy  =   -456.50171682276  :
                 :  virial theorem    =      1.99418111705  :
                 :  wavefunction norm =      1.00000000000  :
                  .......................................... 


 <geterg> : there is no data group $energy 


 <skperg> : $end is missing 


 orbitals $scfmo  will be written to file mos

    irrep                 12a         13a         14a         15a         16a   
 eigenvalues H         -0.36904    -0.35107    -0.34111    -0.28031    -0.22715
            eV         -10.0421     -9.5532     -9.2821     -7.6277     -6.1810
 occupation              2.0000      2.0000      2.0000      2.0000      2.0000 

    irrep                 17a         18a         19a         20a         21a   
 eigenvalues H         -0.03079     0.00354     0.03761     0.08801     0.09317
            eV          -0.8378      0.0964      1.0235      2.3950      2.5353
 
 
 
 
 ==============================================================================
                           electrostatic moments
 ==============================================================================

 reference point for electrostatic moments:    0.00000   0.00000   0.00000

 
              nuc           elec       ->  total
 ------------------------------------------------------------------------------
                          charge      
 ------------------------------------------------------------------------------
          32.000000     -32.000000      -0.000000
 
 ------------------------------------------------------------------------------
                       dipole moment  
 ------------------------------------------------------------------------------
   x     -71.171249      70.878366      -0.292882
   y      73.517227     -74.173883      -0.656656
   z      16.474643     -16.632670      -0.158027
 
   | dipole moment | =     0.7362 a.u. =     1.8712 debye 
 
 ------------------------------------------------------------------------------
                     quadrupole moment
 ------------------------------------------------------------------------------
  xx     270.045944    -283.759935     -13.713991
  yy     247.153783    -269.957119     -22.803336
  zz      18.225679     -35.769909     -17.544229
  xy    -169.498494     167.488608      -2.009886
  xz     -37.578488      37.111939      -0.466549
  yz      55.435362     -56.774289      -1.338927
 
     1/3  trace=     -18.020519
     anisotropy=       8.979013
 
 ==============================================================================
 


    ------------------------------------------------------------------------
         total  cpu-time :  47.51 seconds
         total wall-time :   4.23 seconds
    ------------------------------------------------------------------------

   ****  ridft : all done  ****


    2018-04-28 20:54:37.115 

