
   OpenMP run-time library returned nthreads = 28
 operating system is UNIX !

 dscf (c-12-37) : TURBOMOLE V7.3 ( 22142 ) 4 Jul 2018 at 18:12:42
 Copyright (C) 2018 TURBOMOLE GmbH, Karlsruhe


    2019-03-25 10:29:20.308 



                             d s c f - program

                   idea & directorship : reinhart ahlrichs
                   program development : marco haeser
                                         michael baer
                           dft version : oliver treutler


                          quantum chemistry group
                          universitaet  karlsruhe
                                  germany




                          References             
                                                 
          TURBOMOLE:                             
              R. Ahlrichs, M. Baer, M. Haeser, H. Horn, and
              C. Koelmel
              Electronic structure calculations on workstation
              computers: the program system TURBOMOLE
              Chem. Phys. Lett. 162: 165 (1989)
          Density Functional:                              
              O. Treutler and R. Ahlrichs                      
              Efficient Molecular Numerical Integration Schemes
              J. Chem. Phys. 102: 346 (1995)                   
          Parallel Version:                                
              Performance of parallel TURBOMOLE for Density    
              Functional Calculations                          
              M. v. Arnim and R. Ahlrichs                      
              J. Comp. Chem. 19: 1746 (1998)                   
                                         




              +--------------------------------------------------+
              | Atomic coordinate, charge and isotop information |
              +--------------------------------------------------+

                    atomic coordinates            atom    charge  isotop
         -3.02021322   -5.57287040    6.14160993    c      6.000     0
         -7.55992498   -5.49254003    6.14160993    c      6.000     0
         -7.57917751   -2.96661681    6.14160993    c      6.000     0
         -5.13872849   -1.73612541    6.14160993    c      6.000     0
         -5.34962382   -6.77813772    6.14160993    n      7.000     0
         -3.01397334   -3.02330859    6.14160993    n      7.000     0
         -5.01381949    0.76047871    6.14160993    n      7.000     0
         -1.13019040   -6.85880446    6.14160993    o      8.000     0
         -5.30378284   -8.65690911    6.14160993    h      1.000     0
         -9.25454067   -6.60873133    6.14160993    h      1.000     0
         -9.30421779   -1.90668642    6.14160993    h      1.000     0
         -6.57529074    1.79538156    6.14160993    h      1.000     0
         -3.32233507    1.63396871    6.14160993    h      1.000     0
          2.02057455    2.09509212    6.14160993    c      6.000     0
          4.31882924   -1.93152310    6.14160993    c      6.000     0
          6.52909072    1.59570364    6.14160993    c      6.000     0
          4.48320895    3.19202901    6.14160993    c      6.000     0
          7.66977287    5.57318976    6.14160993    c      6.000     0
          2.15879290   -0.53650459    6.14160993    n      7.000     0
          6.57508098   -0.94499535    6.14160993    n      7.000     0
          5.26063662    5.68364992    6.14160993    n      7.000     0
          8.57326795    3.13252153    6.14160993    n      7.000     0
          4.03373759   -4.43966966    6.14160993    n      7.000     0
         -0.02458345    3.12065405    6.14160993    o      8.000     0
          0.48192174   -1.43893196    6.14160993    h      1.000     0
          8.92516519    7.16093010    6.14160993    h      1.000     0
         10.36302946    2.57112358    6.14160993    h      1.000     0
          5.59543373   -5.47388087    6.14160993    h      1.000     0
          2.33979087   -5.28069984    6.14160993    h      1.000     0
         -2.86614385    0.50730076    0.00000000    c      6.000     0
         -2.35868435   -4.10118003    0.00000000    c      6.000     0
         -6.22007703   -2.54675178    0.00000000    c      6.000     0
         -5.50322076   -0.05275926    0.00000000    c      6.000     0
         -9.48081459    0.00062550    0.00000000    c      6.000     0
         -1.43115007   -1.70294749    0.00000000    n      7.000     0
         -4.76389754   -4.62925266    0.00000000    n      7.000     0
         -7.59671039    1.50604370    0.00000000    n      7.000     0
         -8.77716940   -2.50497750    0.00000000    n      7.000     0
         -0.65378855   -5.96273979    0.00000000    n      7.000     0
         -1.81438653    2.53911162    0.00000000    o      8.000     0
          0.45590021   -1.44738660    0.00000000    h      1.000     0
        -11.42969860    0.54723256    0.00000000    h      1.000     0
         -9.89513516   -4.01115348    0.00000000    h      1.000     0
         -1.30933455   -7.71737697    0.00000000    h      1.000     0
          1.21098753   -5.64747111    0.00000000    h      1.000     0
          5.71905583   -2.73330933    0.00000000    c      6.000     0
          9.34454077    0.00005480    0.00000000    c      6.000     0
          7.87541665    2.05488631    0.00000000    c      6.000     0
          5.17778724    1.61591426    0.00000000    c      6.000     0
          8.31202654   -2.33919749    0.00000000    n      7.000     0
          4.21541208   -0.67433743    0.00000000    n      7.000     0
          3.60926731    3.56229061    0.00000000    n      7.000     0
          4.94584793   -4.88457923    0.00000000    o      8.000     0
          9.37925504   -3.88610085    0.00000000    h      1.000     0
         11.37159519    0.09310681    0.00000000    h      1.000     0
          8.64799150    3.92634068    0.00000000    h      1.000     0
          4.26422182    5.31735297    0.00000000    h      1.000     0
          1.72740244    3.27472720    0.00000000    h      1.000     0
 
       center of nuclear mass  :    0.31843654   -0.98004659    3.07080497
       center of nuclear charge:    0.32211852   -0.99137858    3.07080497

              +--------------------------------------------------+
              |               basis set information              |
              +--------------------------------------------------+

              we will work with the 1s 3p 5d 7f 9g ... basis set
              ...i.e. with spherical basis functions...

   type   atoms  prim   cont   basis
   ---------------------------------------------------------------------------
    c       18     77     55   cc-pVQZ   [5s4p3d2f1g|21s6p3d2f1g]
    n       16     77     55   cc-pVQZ   [5s4p3d2f1g|21s6p3d2f1g]
    o        4     77     55   cc-pVQZ   [5s4p3d2f1g|21s6p3d2f1g]
    h       20     32     30   cc-pVQZ   [4s3p2d1f|6s3p2d1f]
   ---------------------------------------------------------------------------
   total:   58   3566   2690
   ---------------------------------------------------------------------------

   total number of primitive shells          :  111
   total number of contracted shells         :  770
   total number of cartesian basis functions : 3360
   total number of SCF-basis functions       : 2690


 integral neglect threshold       :  0.99E-14
 integral storage threshold THIZE :  0.10E-04
 integral storage threshold THIME :         5


 DENSITY CONVERGENCE CHECK SWITCHED ON !
 SCF CONVERGENCE IF RMS(delta[D]) <     0.1000000000E-06


 symmetry group of the molecule :   c1 

 the group has the following generators :
   c1(z)

    1 symmetry operations found

 there are 1 real representations :   a   

 maximum number of shells which are related by symmetry :  1


    mo occupation :
   irrep   mo's   occupied
    a     2690      136
 
 number of basis functions   :                   2690
 number of occupied orbitals :                    136
 

 automatic virtual orbital shift switched on 
      shift if e(lumo)-e(homo) < 0.10000000    


          ------------------------
          nuclear repulsion energy  :   4676.92022404    
          ------------------------


         -----------------
         -S,T+V- integrals
         -----------------

 1e-integrals will be neglected if expon. factor < 0.994631E-15
 
   Difference densities algorithm switched on.
   The maximal number of linear combinations of
   difference densities is                    20 .

 DIIS switched on: error vector is FDS-SDF
 Max. Iterations for DIIS is     :   5
 DIIS matrix (see manual) 
    Scaling factor of diagonals  :  1.200
    threshold for scaling factor :  0.000

 scf convergence criterion : increment of total energy < .1000000D-08
                  and increment of one-electron energy < .1000000D-05

  MOs are in ASCII format !


 reading orbital data $scfmo  from file mos
 orbital characterization : scfconv=9

 DSCF restart information will be dumped onto file mos

 
                                              current damping :  0.700
 ITERATION  ENERGY          1e-ENERGY        2e-ENERGY     RMS[dD(SAO)]   TOL
   1  -1864.4514776260    -11870.065517     5328.6938158    0.000D+00 0.992D-14
          max. resid. norm for Fia-block=  1.168D-01 for orbital      3a         
          max. resid. fock norm         =  2.509D-01 for orbital   2686a         
          Delta Eig. =    29.8304277891 eV 
 
                                              current damping :  0.650
 ITERATION  ENERGY          1e-ENERGY        2e-ENERGY     RMS[dD(SAO)]   TOL
   2  -1864.7989126456    -11864.835016     5323.1158797    0.765D-03 0.652D-14
          Norm of current diis error:  1.6224    
          max. resid. norm for Fia-block=  5.200D-02 for orbital      4a         
          max. resid. fock norm         =  9.997D-02 for orbital   2689a         
          Delta Eig. =    13.2168883346 eV 
 
                                              current damping :  0.600
 ITERATION  ENERGY          1e-ENERGY        2e-ENERGY     RMS[dD(SAO)]   TOL
   3  -1864.8714743282    -11865.873407     5324.0817086    0.376D-03 0.486D-14
          Norm of current diis error: 0.73498    
          max. resid. norm for Fia-block=  2.447D-02 for orbital      4a         
          max. resid. fock norm         =  3.761D-02 for orbital   2679a         
          Delta Eig. =     5.7222390512 eV 
 
                                              current damping :  0.650
 ITERATION  ENERGY          1e-ENERGY        2e-ENERGY     RMS[dD(SAO)]   TOL
   4  -1864.8890381011    -11865.348152     5323.5388898    0.165D-03 0.428D-14
          Norm of current diis error: 0.31674    
          max. resid. norm for Fia-block=  9.524D-03 for orbital    111a         
          max. resid. fock norm         =  1.566D-02 for orbital   2477a         
          Delta Eig. =     2.0765491865 eV 
 
                                              current damping :  0.700
 ITERATION  ENERGY          1e-ENERGY        2e-ENERGY     RMS[dD(SAO)]   TOL
   5  -1864.8926439817    -11865.355101     5323.5422325    0.646D-04 0.396D-14
          Norm of current diis error: 0.14598    
          max. resid. norm for Fia-block=  5.152D-03 for orbital    110a         
          max. resid. fock norm         =  5.546D-03 for orbital   2682a         
 mo-orthogonalization: Cholesky decomposition
          Delta Eig. =     0.7307742753 eV 
 
                                              current damping :  0.750
 ITERATION  ENERGY          1e-ENERGY        2e-ENERGY     RMS[dD(SAO)]   TOL
   6  -1864.8935416609    -11865.315259     5323.5014935    0.282D-04 0.371D-14
          Norm of current diis error: 0.74241E-01
          max. resid. norm for Fia-block=  2.886D-03 for orbital    110a         
          max. resid. fock norm         =  2.903D-03 for orbital    110a         
          Delta Eig. =     0.2930549076 eV 
 
                                              current damping :  0.600
 ITERATION  ENERGY          1e-ENERGY        2e-ENERGY     RMS[dD(SAO)]   TOL
   7  -1864.8938111110    -11865.310868     5323.4968333    0.134D-04 0.347D-14
          Norm of current diis error: 0.40566E-01
          max. resid. norm for Fia-block=  1.716D-03 for orbital    110a         
          max. resid. fock norm         =  1.725D-03 for orbital    110a         
          Delta Eig. =     0.1347074346 eV 
 
                                              current damping :  0.450
 ITERATION  ENERGY          1e-ENERGY        2e-ENERGY     RMS[dD(SAO)]   TOL
   8  -1864.8939109738    -11865.306771     5323.4926356    0.788D-05 0.321D-14
          Norm of current diis error: 0.20992E-01
          max. resid. norm for Fia-block=  9.704D-04 for orbital    135a         
          max. resid. fock norm         =  9.931D-04 for orbital    135a         
          Delta Eig. =     0.0586888422 eV 
 
                                              current damping :  0.500
 ITERATION  ENERGY          1e-ENERGY        2e-ENERGY     RMS[dD(SAO)]   TOL
   9  -1864.8939439500    -11865.306858     5323.4926900    0.461D-05 0.295D-14
          Norm of current diis error: 0.98916E-02
          max. resid. norm for Fia-block=  5.402D-04 for orbital    135a         
          max. resid. fock norm         =  5.511D-04 for orbital    135a         
          Delta Eig. =     0.0181798348 eV 
 
                                              current damping :  0.550
 ITERATION  ENERGY          1e-ENERGY        2e-ENERGY     RMS[dD(SAO)]   TOL
  10  -1864.8939519831    -11865.305750     5323.4915744    0.224D-05 0.275D-14
          Norm of current diis error: 0.47897E-02
          max. resid. norm for Fia-block=  3.032D-04 for orbital    135a         
          max. resid. fock norm         =  3.089D-04 for orbital    135a         
 mo-orthogonalization: Cholesky decomposition
          Delta Eig. =     0.0067237755 eV 
 
                                              current damping :  0.600
 ITERATION  ENERGY          1e-ENERGY        2e-ENERGY     RMS[dD(SAO)]   TOL
  11  -1864.8939539878    -11865.306343     5323.4921645    0.115D-05 0.259D-14
          Norm of current diis error: 0.24000E-02
          max. resid. norm for Fia-block=  1.723D-04 for orbital    135a         
          max. resid. fock norm         =  1.747D-04 for orbital    135a         
          Delta Eig. =     0.0024686951 eV 
 
                                              current damping :  0.650
 ITERATION  ENERGY          1e-ENERGY        2e-ENERGY     RMS[dD(SAO)]   TOL
  12  -1864.8939545076    -11865.305963     5323.4917846    0.605D-06 0.247D-14
          Norm of current diis error: 0.12404E-02
          max. resid. norm for Fia-block=  9.891D-05 for orbital    135a         
          max. resid. fock norm         =  1.004D-04 for orbital    135a         
          Delta Eig. =     0.0010195216 eV 
 
                                              current damping :  0.700
 ITERATION  ENERGY          1e-ENERGY        2e-ENERGY     RMS[dD(SAO)]   TOL
  13  -1864.8939546505    -11865.306071     5323.4918918    0.326D-06 0.236D-14
          Norm of current diis error: 0.67900E-03
          max. resid. norm for Fia-block=  5.950D-05 for orbital    135a         
          max. resid. fock norm         =  6.013D-05 for orbital    135a         
          Delta Eig. =     0.0004886120 eV 
 
                                              current damping :  0.750
 ITERATION  ENERGY          1e-ENERGY        2e-ENERGY     RMS[dD(SAO)]   TOL
  14  -1864.8939546938    -11865.305977     5323.4917987    0.182D-06 0.227D-14
          Norm of current diis error: 0.38624E-03
          max. resid. norm for Fia-block=  3.641D-05 for orbital    135a         
          max. resid. fock norm         =  3.681D-05 for orbital    135a         
          Delta Eig. =     0.0002562821 eV 
 
                                              current damping :  0.600
 ITERATION  ENERGY          1e-ENERGY        2e-ENERGY     RMS[dD(SAO)]   TOL
  15  -1864.8939547078    -11865.305977     5323.4917978    0.105D-06 0.219D-14
          Norm of current diis error: 0.22664E-03
          max. resid. norm for Fia-block=  2.300D-05 for orbital    135a         
          max. resid. fock norm         =  2.319D-05 for orbital    135a         
 mo-orthogonalization: Cholesky decomposition
          Delta Eig. =     0.0001604585 eV 

 DENSITY CONVERGED !

 
                                              current damping :  0.450
 ITERATION  ENERGY          1e-ENERGY        2e-ENERGY     RMS[dD(SAO)]   TOL
  16  -1864.8939547131    -11865.305938     5323.4917597    0.704D-07 0.283D-14
          Norm of current diis error: 0.12274E-03
          max. resid. norm for Fia-block=  1.298D-05 for orbital    135a         
          max. resid. fock norm         =  1.309D-05 for orbital    135a         
          Delta Eig. =     0.0000952567 eV 

 DENSITY CONVERGED !

 
                                              current damping :  0.300
 ITERATION  ENERGY          1e-ENERGY        2e-ENERGY     RMS[dD(SAO)]   TOL
  17  -1864.8939547149    -11865.305931     5323.4917524    0.433D-07 0.284D-14
          Norm of current diis error: 0.60141E-04
          max. resid. norm for Fia-block=  6.454D-06 for orbital    135a         
          max. resid. fock norm         =  6.487D-06 for orbital    136a         
          Delta Eig. =     0.0000466521 eV 

 DENSITY CONVERGED !

 
                                              current damping :  0.150
 ITERATION  ENERGY          1e-ENERGY        2e-ENERGY     RMS[dD(SAO)]   TOL
  18  -1864.8939547152    -11865.305909     5323.4917304    0.237D-07 0.283D-14
          Norm of current diis error: 0.26318E-04
          max. resid. norm for Fia-block=  2.513D-06 for orbital    136a         
          max. resid. fock norm         =  2.533D-06 for orbital    136a         
          Delta Eig. =     0.0000288327 eV 

 ENERGY & DENSITY CONVERGED !

 
                                              current damping :  0.200
 ITERATION  ENERGY          1e-ENERGY        2e-ENERGY     RMS[dD(SAO)]   TOL
  19  -1864.8939547152    -11865.305911     5323.4917323    0.110D-07 0.283D-14
          max. resid. norm for Fia-block=  4.379D-07 for orbital    136a         
          max. resid. fock norm         =  4.466D-07 for orbital    136a         

 convergence criteria satisfied after    19 iterations


                  ------------------------------------------ 
                 |  total energy      =  -1864.89395471519  |
                  ------------------------------------------ 
                 :  kinetic energy    =   1864.35806714997  :
                 :  potential energy  =  -3729.25202186516  :
                 :  virial theorem    =      1.99971264448  :
                 :  wavefunction norm =      1.00000000000  :
                  .......................................... 


 orbitals $scfmo  will be written to file mos

    irrep                132a        133a        134a        135a        136a   
 eigenvalues H         -0.37412    -0.34950    -0.34925    -0.28398    -0.28210
            eV         -10.1805     -9.5104     -9.5036     -7.7275     -7.6764
 occupation              2.0000      2.0000      2.0000      2.0000      2.0000 

    irrep                137a        138a        139a        140a        141a   
 eigenvalues H          0.08376     0.08380     0.10051     0.10136     0.11351
            eV           2.2793      2.2802      2.7350      2.7582      3.0889
 
 
 
 
 ==============================================================================
                           electrostatic moments
 ==============================================================================

 reference point for electrostatic moments:    0.00000   0.00000   0.00000

 
              nuc           elec       ->  total
 ------------------------------------------------------------------------------
                          charge      
 ------------------------------------------------------------------------------
         272.000000    -272.000000       0.000000
 
 ------------------------------------------------------------------------------
                       dipole moment  
 ------------------------------------------------------------------------------
   x      87.616238     -87.023830       0.592408
   y    -269.654975     267.831726      -1.823249
   z     835.258951    -835.258951      -0.000000
 
   | dipole moment | =     1.9171 a.u. =     4.8727 debye 
 
 ------------------------------------------------------------------------------
                     quadrupole moment
 ------------------------------------------------------------------------------
  xx    8727.476825   -8815.044900     -87.568075
  yy    3539.072925   -3699.064998    -159.992073
  zz    5129.834668   -5299.229182    -169.394515
  xy    1884.798289   -1858.488747      26.309542
  xz     538.104963    -548.548290     -10.443327
  yz    -740.637417     731.054266      -9.583151
 
     1/3  trace=    -138.984888
     anisotropy=      93.240975
 
 ==============================================================================
 


    ------------------------------------------------------------------------
         total  cpu-time :   7 days  8 hours 41 minutes and 18 seconds
         total wall-time :  6 hours 30 minutes and 57 seconds
    ------------------------------------------------------------------------

   ****  dscf : all done  ****


    2019-03-25 17:00:17.604 

