STARTING ridft ON 16 PROCESSORS!
RUNNING PROGRAM /sopt/TURBOMOLE/7.3-official/bin/em64t-unknown-linux-gnu_smp/ridft_mpi.
           SMPCPUS    set: Shared-memory Parallelization with  16 CPUs.

           SMP Parallelization Reference:
           C. van Wullen, J. Comput. Chem. 32 (2011) 1195--1201
 operating system is UNIX !

 ridft (c-13-38) : TURBOMOLE V7.3 ( 22118 ) 1 Jul 2018 at 20:38:15
 Copyright (C) 2018 TURBOMOLE GmbH, Karlsruhe


    2019-03-12 22:50:29.626 



                                  r i d f t

                        DFT program with RI approximation 
                                for coulomb part 




                                                 
                                 References:     
                                                 
          TURBOMOLE:                             
              R. Ahlrichs, M. Baer, M. Haeser, H. Horn, and
              C. Koelmel
              Electronic structure calculations on workstation
              computers: the program system TURBOMOLE
              Chem. Phys. Lett. 162: 165 (1989)
          Density Functional:                              
              O. Treutler and R. Ahlrichs                      
              Efficient Molecular Numerical Integration Schemes
              J. Chem. Phys. 102: 346 (1995)                   
          Parallel Version:                                
              Performance of parallel TURBOMOLE for Density    
              Functional Calculations                          
              M. v. Arnim and R. Ahlrichs                      
              J. Comp. Chem. 19: 1746 (1998)                   
          RI-J Method:                                     
              Auxiliary Basis Sets to approximate Coulomb      
              Potentials                                       
              Chem. Phys. Lett. 240: 283 (1995)                
              K. Eichkorn, O. Treutler, H. Oehm, M. Haeser     
              and R. Ahlrichs                                  
              Chem. Phys. Lett. 242: 652 (1995)                
                                                           
              Auxiliary Basis Sets for Main Row Atoms and their
              Use to approximate Coulomb Potentials            
              K. Eichkorn, F. Weigend, O. Treutler and         
              R. Ahlrichs                                      
              Theo. Chem. Acc. 97: 119 (1997)                   
                                                           
              Accurate Coulomb-fitting basis sets for H to Rn 
              F. Weigend                                        
              Phys. Chem. Chem. Phys. 8: 1057 (2006)            
                                                           
          Multipole accelerated RI-J (MARI-J):             
              Fast evaluation of the Coulomb potential for     
              electron densities using multipole accelerated   
              resolution of identity approximation             
              M. Sierka, A. Hogekamp and R. Ahlrichs           
              J. Chem. Phys. 118: 9136 (2003)                  
          RI-JK Method:                                     
              A fully direct RI-HF algorithm: Implementation,
              optimised auxiliary basis sets, demonstration of
              accuracy and efficiency                         
              F. Weigend                                      
              Phys. Chem. Chem. Phys. 4: 4285 (2002)           
          Two-component HF and DFT with spin-orbit coupling:  
              Self-consistent treatment of spin-orbit         
              interactions with efficient Hartree-Fock and    
              density functional methods                      
              M. K. Armbruster, F. Weigend, C. van Wüllen and 
              W. Klopper                                      
              Phys. Chem. Chem. Phys. 10: 1748 (2008)         
          Two-component difference density and DIIS algorithm 
              Efficient two-component self-consistent field   
              procedures and gradients: implementation in     
              TURBOMOLE and application to Au20-              
              A. Baldes, F. Weigend                           
              Mol. Phys. 111: 2617 (2013)                     
          Relativistic all-electron 2c calculations           
              An efficient implementation of two-component    
              relativistic exact-decoupling methods for large 
              molecules                                       
              D. Peng, N. Middendorf, F. Weigend, M. Reiher   
              J. Chem. Phys. 138: 184105 (2013)               
          Finite nucleus model and SNSO approximation         
              Efficient implementation of one- and two-       
              component analytical energy gradients in exact  
              two-component theory                            
              Y. J. Franzke, N. Middendorf, F. Weigend        
              J. Chem. Phys. 148: 104110 (2018)               
                                         




              +--------------------------------------------------+
              |      general information about current run       |
              +--------------------------------------------------+

 
 PBE functional
 exchange:    LDA + PBE
 correlation: LDA (PW) + PBE
 A DFT calculation using the RI-J approximation will be carried out.
 Allocatable memory for RI due to $ricore (MB):                  8000


              +--------------------------------------------------+
              | Atomic coordinate, charge and isotop information |
              +--------------------------------------------------+

                    atomic coordinates            atom    charge  isotop
          4.26490694    5.08355208   -0.28218770    c      6.000     0
          4.50040171    5.86056349   -2.17010788    h      1.000     0
          5.22218810    6.29485245    1.07422847    h      1.000     0
          2.24968077    5.03341854    0.13056898    h      1.000     0
          5.23243101    2.40430275   -0.27785261    c      6.000     0
          4.36319500    0.76829801   -1.67469019    o      8.000     0
          7.09661366    1.88834639    1.40840805    n      7.000     0
          7.85205251    3.31496258    2.40118088    h      1.000     0
          8.20861419   -0.60531835    1.55486101    c      6.000     0
          6.71917625   -2.00622930    1.37907756    h      1.000     0
          9.57159765   -0.93034250    0.04583080    h      1.000     0
          9.14337387   -0.82427749    3.36888382    h      1.000     0
 
       center of nuclear mass  :    5.84848047    1.89184941    0.15269598
       center of nuclear charge:    5.90190098    1.93507439    0.21649804

              +--------------------------------------------------+
              |               basis set information              |
              +--------------------------------------------------+

              we will work with the 1s 3p 5d 7f 9g ... basis set
              ...i.e. with spherical basis functions...

   type   atoms  prim   cont   basis
   ---------------------------------------------------------------------------
    c        3     68     48   def2-QZVP   [7s4p3d2f|15s8p3d2f]
    h        7     26     23   def2-QZVP   [4s3p2d|7s3p2d]
    o        1     68     48   def2-QZVP   [7s4p3d2f|15s8p3d2f]
    n        1     68     48   def2-QZVP   [7s4p3d2f|15s8p3d2f]
   ---------------------------------------------------------------------------
   total:   12    522    401
   ---------------------------------------------------------------------------

   total number of primitive shells          :   96
   total number of contracted shells         :  143
   total number of cartesian basis functions :  460
   total number of SCF-basis functions       :  401


 integral neglect threshold       :  0.72E-11
 integral storage threshold THIZE :  0.10E-04
 integral storage threshold THIME :         5

 RI-J AUXILIARY BASIS SET information:

              we will work with the 1s 3p 5d 7f 9g ... basis set
              ...i.e. with spherical basis functions...

   type   atoms  prim   cont   basis
   ---------------------------------------------------------------------------
    c        3     70     49   def2-QZVP   [6s4p3d1f1g|12s5p4d2f1g]
    h        7     16     11   def2-QZVP   [3s1p1d|5s2p1d]
    o        1     70     49   def2-QZVP   [6s4p3d1f1g|12s5p4d2f1g]
    n        1     70     49   def2-QZVP   [6s4p3d1f1g|12s5p4d2f1g]
   ---------------------------------------------------------------------------
   total:   12    462    322
   ---------------------------------------------------------------------------

   total number of primitive shells          :   80
   total number of contracted shells         :  110
   total number of cartesian basis functions :  389
   total number of SCF-basis functions       :  322


 symmetry group of the molecule :   c1 

 the group has the following generators :
   c1(z)

    1 symmetry operations found

 there are 1 real representations :   a   

 maximum number of shells which are related by symmetry :  1


    mo occupation :
   irrep   mo's   occupied
    a      401       20
 
 number of basis functions   :                    401
 number of occupied orbitals :                     20
 
  
           ------------------
           density functional
           ------------------
 PBE functional
 exchange:    LDA + PBE
 correlation: LDA (PW) + PBE

 iterations will be done with small grid
  
 spherical integration : Lebedev's spherical grid
 spherical gridsize    :                     4
    i.e. gridpoints    :                   434
 value for diffuse not defined
 radial integration    : Chebyshev 2nd kind (scaling 3)
 radial gridsize       :                     6
 integration cells     :                    12
 partition function    : becke
 partition sharpness   :                     3
  

 biggest AO integral is expected to be     6.990327543
  
           ------------------------
               RI-J - INFORMATION
           ------------------------
 Contributions to RI integral batches: 
  neglected integral batches:                  1254
  direct contribution:                            0
  memory contribution:                  9042
 Memory core needed for (P|Q) and Cholesky      1 MByte
 Memory core minimum needed except of (P|Q)     1 MByte
 Total minimum memory core needed (sum)         2 MByte
  
 ****************************************
 Memory allocated for RI-J   286 MByte
 ****************************************
                                            

          ------------------------
          nuclear repulsion energy  :   180.722114561    
          ------------------------

  _________________________________
 |                                 |
 |         DFTD3 V3.1 Rev 0        |
 | S.Grimme, University Bonn       |
 |            June  2014           |
 |   see standalone version        |
 |       dftd3 -h for options      |
 |_________________________________|
 
 Please cite DFT-D3 work done with this code as:
 S. Grimme, J. Antony, S. Ehrlich and H. Krieg,
 J. Chem. Phys, 132 (2010), 154104.
 If used with BJ-damping cite also
 S. Grimme, S. Ehrlich and L. Goerigk,
 J. Comput. Chem. 32 (2011), 1456-1465
 For DFT-D2 the reference is
 S. Grimme, J. Comput. Chem., 27 (2006), 1787-1799
 
C6 coefficients used:
                     2  C6 for element                      1
Z=  1 CN= 0.912     C6(AA)=    3.03
Z=  1 CN= 0.000     C6(AA)=    7.59
                     5  C6 for element                      6
Z=  6 CN= 0.000     C6(AA)=   49.11
Z=  6 CN= 0.987     C6(AA)=   43.25
Z=  6 CN= 1.998     C6(AA)=   29.36
Z=  6 CN= 2.999     C6(AA)=   25.78
Z=  6 CN= 3.984     C6(AA)=   18.21
                     4  C6 for element                      7
Z=  7 CN= 0.000     C6(AA)=   25.27
Z=  7 CN= 0.994     C6(AA)=   22.12
Z=  7 CN= 2.014     C6(AA)=   19.68
Z=  7 CN= 2.990     C6(AA)=   15.58
                     3  C6 for element                      8
Z=  8 CN= 0.000     C6(AA)=   15.51
Z=  8 CN= 0.993     C6(AA)=   12.82
Z=  8 CN= 1.989     C6(AA)=   10.37

#           XYZ [au]              R0(AA) [Ang.]  CN          C6(AA)     C8(AA)   C10(AA) [au]
  1   4.26491   5.08355  -0.28219   c   0.610  4.039        18.3       529.1     18746.0
  2   4.50040   5.86056  -2.17011   h   0.395  0.999         3.1        37.4       553.3
  3   5.22219   6.29485   1.07423   h   0.395  0.998         3.1        37.4       553.4
  4   2.24968   5.03342   0.13057   h   0.395  0.999         3.1        37.4       553.3
  5   5.23243   2.40430  -0.27785   c   0.610  3.070        25.5       738.2     26153.9
  6   4.36320   0.76830  -1.67469   o   0.510  1.063        12.8       257.5      6365.7
  7   7.09661   1.88835   1.40841   n   0.533  3.080        15.6       344.7      9314.4
  8   7.85205   3.31496   2.40118   h   0.395  1.011         3.1        37.3       552.3
  9   8.20861  -0.60532   1.55486   c   0.610  4.039        18.3       529.1     18745.9
 10   6.71918  -2.00623   1.37908   h   0.395  1.000         3.1        37.4       553.3
 11   9.57160  -0.93034   0.04583   h   0.395  0.998         3.1        37.4       553.4
 12   9.14337  -0.82428   3.36888   h   0.395  0.999         3.1        37.4       553.4

molecular C6(AA) [au] =      1110.07

           DFT-D V3(BJ)
 DF pbe                                               
 parameters
 s6       :    1.0000
 s8       :    0.7875
 a1       :    0.4289
 a2       :    4.4407
 k1-k3    :   16.0000    1.3333   -4.0000
 
 Edisp /kcal,au:    -4.9585 -0.00790191

 E6    /kcal :    -3.5778
 E8    /kcal :    -1.3807
 % E8        : 27.85
 nuclear repulsion energy                  =     180.722114561
 empirical dispersive energy correction    =      -0.007901906
 nuclear repulsion + dispersion correction =     180.714212656


         -----------------
         -S,T+V- integrals
         -----------------

 1e-integrals will be neglected if expon. factor < 0.726513E-12
 Difference densities >>NOT<< switched on in parallel ridft!

 DIIS switched on: error vector is FDS-SDF
 Max. Iterations for DIIS is     :   4
 DIIS matrix (see manual) 
    Scaling factor of diagonals  :  1.200
    threshold for scaling factor :  0.000

 scf convergence criterion : increment of total energy < .1000000D-06
                  and increment of one-electron energy < .1000000D-03

  MOs are in ASCII format !


 automatic virtual orbital shift switched on 
      shift if e(lumo)-e(homo) < 0.10000000    


 reading orbital data $scfmo  from file mos
 orbital characterization : expanded
 mo provided and orthogonalized by Cholesky decomposition

 DSCF restart information will be dumped onto file mos


 Starting SCF iterations

          Overall gridpoints after grid construction =         30545

 ITERATION  ENERGY          1e-ENERGY        2e-ENERGY     NORM[dD(SAO)]  TOL
   1  -247.20226948787    -688.84665909     260.93017694    0.000D+00 0.725D-11
                            Exc = -33.6850152423     Coul =  294.615192184    
                              N = 40.000092883    
                            current damping = 0.700
 
          max. resid. norm for Fia-block=  8.088D-01 for orbital      6a         
          max. resid. fock norm         =  6.534D+01 for orbital    362a         

 ITERATION  ENERGY          1e-ENERGY        2e-ENERGY     NORM[dD(SAO)]  TOL
   2  -248.15850646943    -692.60517902     263.73245990    0.000D+00 0.725D-11
                            Exc = -33.8517101215     Coul =  297.584170017    
                              N = 40.000056400    
                            current damping = 0.650
 
          Norm of current diis error:  2.6295    
          max. resid. norm for Fia-block=  1.608D-01 for orbital      1a         
          max. resid. fock norm         =  3.355D-01 for orbital    261a         

 ITERATION  ENERGY          1e-ENERGY        2e-ENERGY     NORM[dD(SAO)]  TOL
   3  -248.29404153625    -694.10293308     265.09467889    0.000D+00 0.725D-11
                            Exc = -34.0645255104     Coul =  299.159204402    
                              N = 40.000039272    
                            current damping = 0.550
 
          Norm of current diis error:  1.2613    
          max. resid. norm for Fia-block=  6.473D-02 for orbital      1a         
          max. resid. fock norm         =  6.883D-02 for orbital    255a         

 ITERATION  ENERGY          1e-ENERGY        2e-ENERGY     NORM[dD(SAO)]  TOL
   4  -248.33608022747    -693.99628126     264.94598837    0.000D+00 0.725D-11
                            Exc = -34.0368976831     Coul =  298.982886057    
                              N = 40.000033038    
                            current damping = 0.600
 
          Norm of current diis error: 0.55723    
          max. resid. norm for Fia-block=  3.318D-02 for orbital      6a         
          max. resid. fock norm         =  7.083D-02 for orbital    262a         

 ITERATION  ENERGY          1e-ENERGY        2e-ENERGY     NORM[dD(SAO)]  TOL
   5  -248.34265102029    -694.54945243     265.49258876    0.000D+00 0.725D-11
                            Exc = -34.1226954686     Coul =  299.615284226    
                              N = 40.000026728    
                            current damping = 0.650
 
          Norm of current diis error: 0.32050    
          max. resid. norm for Fia-block=  1.044D-02 for orbital     20a         
          max. resid. fock norm         =  1.243D-02 for orbital    260a         
          mo-orthogonalization: Cholesky decomposition

 ITERATION  ENERGY          1e-ENERGY        2e-ENERGY     NORM[dD(SAO)]  TOL
   6  -248.34575491771    -694.57948504     265.51951746    0.000D+00 0.725D-11
                            Exc = -34.1210914618     Coul =  299.640608927    
                              N = 40.000026776    
                            current damping = 0.500
 
          Norm of current diis error: 0.87448E-01
          max. resid. norm for Fia-block=  4.527D-03 for orbital     19a         
          max. resid. fock norm         =  5.978D-03 for orbital     19a         

 ITERATION  ENERGY          1e-ENERGY        2e-ENERGY     NORM[dD(SAO)]  TOL
   7  -248.34598261890    -694.47590195     265.41570667    0.000D+00 0.725D-11
                            Exc = -34.1107245838     Coul =  299.526431256    
                              N = 40.000025819    
                            current damping = 0.550
 
          Norm of current diis error: 0.47766E-01
          max. resid. norm for Fia-block=  1.694D-03 for orbital      6a         
          max. resid. fock norm         =  3.019D-03 for orbital    255a         

 ITERATION  ENERGY          1e-ENERGY        2e-ENERGY     NORM[dD(SAO)]  TOL
   8  -248.34603518986    -694.52031428     265.46006644    0.000D+00 0.725D-11
                            Exc = -34.1160862445     Coul =  299.576152684    
                              N = 40.000025787    
                            current damping = 0.600
 
          Norm of current diis error: 0.10212E-01
          max. resid. norm for Fia-block=  6.615D-04 for orbital      6a         
          max. resid. fock norm         =  1.090D-03 for orbital    262a         

 ITERATION  ENERGY          1e-ENERGY        2e-ENERGY     NORM[dD(SAO)]  TOL
   9  -248.34603779096    -694.53730114     265.47705069    0.000D+00 0.725D-11
                            Exc = -34.1181338071     Coul =  299.595184498    
                              N = 40.000025715    
                            current damping = 0.450
 
          Norm of current diis error: 0.49332E-02
          max. resid. norm for Fia-block=  2.845D-04 for orbital     20a         
          max. resid. fock norm         =  2.935D-04 for orbital     20a         

 ITERATION  ENERGY          1e-ENERGY        2e-ENERGY     NORM[dD(SAO)]  TOL
  10  -248.34603821971    -694.53352534     265.47327447    0.000D+00 0.725D-11
                            Exc = -34.1176055200     Coul =  299.590879989    
                              N = 40.000025711    
                            current damping = 0.500
 
          Norm of current diis error: 0.39733E-02
          max. resid. norm for Fia-block=  1.443D-04 for orbital     19a         
          max. resid. fock norm         =  2.225D-04 for orbital     19a         
          mo-orthogonalization: Cholesky decomposition

 ITERATION  ENERGY          1e-ENERGY        2e-ENERGY     NORM[dD(SAO)]  TOL
  11  -248.34603864275    -694.53242044     265.47216914    0.000D+00 0.725D-11
                            Exc = -34.1176534766     Coul =  299.589822617    
                              N = 40.000025679    
                            current damping = 0.350
 
          Norm of current diis error: 0.11880E-02
          max. resid. norm for Fia-block=  4.187D-05 for orbital     11a         
          max. resid. fock norm         =  6.830D-05 for orbital    258a         

 ITERATION  ENERGY          1e-ENERGY        2e-ENERGY     NORM[dD(SAO)]  TOL
  12  -248.34603867438    -694.53458971     265.47433838    0.000D+00 0.725D-11
                            Exc = -34.1178631035     Coul =  299.592201482    
                              N = 40.000025689    
                            current damping = 0.400
 
          Norm of current diis error: 0.30269E-03
          max. resid. norm for Fia-block=  1.178D-05 for orbital     11a         
          max. resid. fock norm         =  1.533D-05 for orbital    300a         

 ENERGY CONVERGED !

          Overall gridpoints after grid construction =        113730

 ITERATION  ENERGY          1e-ENERGY        2e-ENERGY     NORM[dD(SAO)]  TOL
  13  -248.34596196095    -694.53476157     265.47458695    0.000D+00 0.725D-11
                            Exc = -34.1178028028     Coul =  299.592389752    
                              N = 40.000004338    
                            current damping = 0.250
 
          Norm of current diis error: 0.13083E-03
          max. resid. norm for Fia-block=  4.192D-06 for orbital     20a         
          max. resid. fock norm         =  4.301D-06 for orbital     20a         

 End of SCF iterations

   convergence criteria satisfied after    13 iterations


                  ------------------------------------------ 
                 |  total energy      =   -248.34596196095  |
                  ------------------------------------------ 
                 :  kinetic energy    =    247.38683164669  :
                 :  potential energy  =   -495.73279360764  :
                 :  virial theorem    =      1.99613792668  :
                 :  wavefunction norm =      1.00000000000  :
                  .......................................... 


 orbitals $scfmo  will be written to file mos

    irrep                 16a         17a         18a         19a         20a   
 eigenvalues H         -0.35230    -0.34277    -0.30988    -0.22382    -0.20507
            eV          -9.5867     -9.3273     -8.4323     -6.0905     -5.5802
 occupation              2.0000      2.0000      2.0000      2.0000      2.0000 

    irrep                 21a         22a         23a         24a         25a   
 eigenvalues H         -0.01383    -0.01286     0.02027     0.03186     0.06277
            eV          -0.3765     -0.3499      0.5516      0.8669      1.7079
 
 
 
 
 ==============================================================================
                           electrostatic moments
 ==============================================================================

 reference point for electrostatic moments:    0.00000   0.00000   0.00000

 
              nuc           elec       ->  total
 ------------------------------------------------------------------------------
                          charge      
 ------------------------------------------------------------------------------
          40.000000     -40.000000      -0.000000
 
 ------------------------------------------------------------------------------
                       dipole moment  
 ------------------------------------------------------------------------------
   x     236.076039    -235.250567       0.825472
   y      77.402975     -76.672635       0.730340
   z       8.659922      -7.662863       0.997059
 
   | dipole moment | =     1.4862 a.u. =     3.7777 debye 
 
 ------------------------------------------------------------------------------
                     quadrupole moment
 ------------------------------------------------------------------------------
  xx    1517.132671   -1530.120507     -12.987836
  yy     337.486299    -356.466511     -18.980212
  zz      76.667925    -100.318321     -23.650395
  xy     363.057215    -358.860505       4.196710
  xz     127.643234    -121.732318       5.910916
  yz     -12.864006      13.579041       0.715035
 
     1/3  trace=     -18.539481
     anisotropy=      15.649039
 
 ==============================================================================
 


    ------------------------------------------------------------------------
         total  cpu-time :  1 minutes and 12 seconds
         total wall-time :  21.35 seconds
    ------------------------------------------------------------------------

   ****  ridft : all done  ****


    2019-03-12 22:50:50.942 

