           Doing BLAS/Lapack in the master proc. with  8 CPUs.
           SMPCPUS    set: Shared-memory Parallelization with   8 CPUs.

           SMP Parallelization Reference:
           C. van Wullen, J. Comput. Chem. 32 (2011) 1195--1201
 operating system is UNIX !

 ridft (c-18-213.gp.local) : TURBOMOLE V7.2 ( 21454 ) 4 Oct 2017 at 12:48:15
 Copyright (C) 2017 TURBOMOLE GmbH, Karlsruhe


    2018-04-28 21:00:20.905 



                                  r i d f t

                        DFT program with RI approximation 
                                for coulomb part 




                                                 
                                 References:     
                                                 
          TURBOMOLE:                             
              R. Ahlrichs, M. Baer, M. Haeser, H. Horn, and
              C. Koelmel
              Electronic structure calculations on workstation
              computers: the program system TURBOMOLE
              Chem. Phys. Lett. 162: 165 (1989)
          Density Functional:                              
              O. Treutler and R. Ahlrichs                      
              Efficient Molecular Numerical Integration Schemes
              J. Chem. Phys. 102: 346 (1995)                   
          Parallel Version:                                
              Performance of parallel TURBOMOLE for Density    
              Functional Calculations                          
              M. v. Arnim and R. Ahlrichs                      
              J. Comp. Chem. 19: 1746 (1998)                   
          RI-J Method:                                     
              Auxiliary Basis Sets to approximate Coulomb      
              Potentials                                       
              Chem. Phys. Lett. 240: 283 (1995)                
              K. Eichkorn, O. Treutler, H. Oehm, M. Haeser     
              and R. Ahlrichs                                  
              Chem. Phys. Lett. 242: 652 (1995)                
                                                           
              Auxiliary Basis Sets for Main Row Atoms and their
              Use to approximate Coulomb Potentials            
              K. Eichkorn, F. Weigend, O. Treutler and         
              R. Ahlrichs                                      
              Theo. Chem. Acc. 97: 119 (1997)                   
                                                           
              Accurate Coulomb-fitting basis sets for H to Rn 
              F. Weigend                                        
              Phys. Chem. Chem. Phys. 8: 1057 (2006)            
                                                           
          Multipole accelerated RI-J (MARI-J):             
              Fast evaluation of the Coulomb potential for     
              electron densities using multipole accelerated   
              resolution of identity approximation             
              M. Sierka, A. Hogekamp and R. Ahlrichs           
              J. Chem. Phys. 118: 9136 (2003)                  
          RI-JK Method:                                     
              A fully direct RI-HF algorithm: Implementation,
              optimised auxiliary basis sets, demonstration of
              accuracy and efficiency                         
              F. Weigend                                      
              Phys. Chem. Chem. Phys. 4: 4285 (2002)           
          Two-component HF and DFT with spin-orbit coupling:  
              Self-consistent treatment of spin-orbit         
              interactions with efficient Hartree-Fock and    
              density functional methods                      
              M. K. Armbruster, F. Weigend, C. van Wüllen and 
              W. Klopper                                      
              Phys. Chem. Chem. Phys. 10: 1748 (2008)         
          Relativistic all-electron 2c calculations           
              An efficient implementation of two-component    
              relativistic exact-decoupling methods for large 
              molecules                                       
              D. Peng, N. Middendorf, F. Weigend, M. Reiher   
              J. Chem. Phys. 138, 184105 (2013)               
                                         




              +--------------------------------------------------+
              |      general information about current run       |
              +--------------------------------------------------+

 

 DENSITY CONVERGENCE CHECK SWITCHED ON !
 SCF CONVERGENCE IF RMS(delta[D]) <     0.1000000000E-06

 TPSS meta-GGA functional
 exchange:    LDA + TPSS
 correlation: LDA (PW) + TPSS
 A DFT calculation using the RI-J approximation will be carried out.
 Allocatable memory for RI due to $ricore (MB):                  5000


              +--------------------------------------------------+
              | Atomic coordinate, charge and isotop information |
              +--------------------------------------------------+

                    atomic coordinates            atom    charge  isotop
         -1.47129038   -0.87554913    4.70615068    c      0.000     0
          0.42470579   -0.09628710    4.56082294    h      0.000     0
         -1.36528923   -2.81019623    5.39438319    h      0.000     0
         -2.55473507    0.20941364    6.07298197    h      0.000     0
         -2.87333348   -0.86290127    2.21537319    c      0.000     0
         -5.10383888   -1.48076244    2.05903958    o      0.000     0
         -1.49657543   -0.13160144    0.19008636    n      0.000     0
          0.36681786    0.27534803    0.38347199    h      0.000     0
         -2.64145606   -0.10598047   -2.28905914    c      0.000     0
         -4.37457996    0.99945954   -2.26712318    h      0.000     0
         -1.32054859    0.73181781   -3.61951759    h      0.000     0
         -3.12368389   -2.00599899   -2.92044882    h      0.000     0
          4.22975174    0.48107567    0.53388399    n      7.000     0
          4.99257055    1.50137571    1.96100534    h      1.000     0
          5.01966458    1.17532561   -1.06415521    h      1.000     0
          4.93330215   -2.18567338    0.82443458    c      6.000     0
          4.12773571   -3.26476857   -0.72774007    h      1.000     0
          6.96551106   -2.53846531    0.87315814    h      1.000     0
          4.11226797   -2.91209735    2.56267271    h      1.000     0
 
       center of nuclear mass  :   -0.52476240   -0.72976466    1.15144331
       center of nuclear charge:    4.69032361   -0.87695225    0.68270757

              +--------------------------------------------------+
              |               basis set information              |
              +--------------------------------------------------+

              we will work with the 1s 3p 5d 7f 9g ... basis set
              ...i.e. with spherical basis functions...

   type   atoms  prim   cont   basis
   ---------------------------------------------------------------------------
    c        4     77     55   cc-pVQZ   [5s4p3d2f1g|21s6p3d2f1g]
    h       12     32     30   cc-pVQZ   [4s3p2d1f|6s3p2d1f]
    o        1     77     55   cc-pVQZ   [5s4p3d2f1g|21s6p3d2f1g]
    n        2     77     55   cc-pVQZ   [5s4p3d2f1g|21s6p3d2f1g]
   ---------------------------------------------------------------------------
   total:   19    923    745
   ---------------------------------------------------------------------------

   total number of primitive shells          :  111
   total number of contracted shells         :  225
   total number of cartesian basis functions :  910
   total number of SCF-basis functions       :  745


 integral neglect threshold       :  0.37E-13
 integral storage threshold THIZE :  0.10E-04
 integral storage threshold THIME :         5

 RI-J AUXILIARY BASIS SET information:

              we will work with the 1s 3p 5d 7f 9g ... basis set
              ...i.e. with spherical basis functions...

   type   atoms  prim   cont   basis
   ---------------------------------------------------------------------------
    c        4     70     49   cc-pVQZ   [6s4p3d1f1g|12s5p4d2f1g]
    h       12     16     11   cc-pVQZ   [3s1p1d|5s2p1d]
    o        1     70     49   cc-pVQZ   [6s4p3d1f1g|12s5p4d2f1g]
    n        2     70     49   cc-pVQZ   [6s4p3d1f1g|12s5p4d2f1g]
   ---------------------------------------------------------------------------
   total:   19    682    475
   ---------------------------------------------------------------------------

   total number of primitive shells          :   80
   total number of contracted shells         :  165
   total number of cartesian basis functions :  571
   total number of SCF-basis functions       :  475


 symmetry group of the molecule :   c1 

 the group has the following generators :
   c1(z)

    1 symmetry operations found

 there are 1 real representations :   a   

 maximum number of shells which are related by symmetry :  1


    mo occupation :
   irrep   mo's   occupied
    a      745        9
 
 number of basis functions   :                    745
 number of occupied orbitals :                      9
 
  
           ------------------
           density functional
           ------------------
 Dummy atoms with grid-point found.
 DFT quadrature threshold dgrenze tightened by factor 1/10.

 TPSS meta-GGA functional
 exchange:    LDA + TPSS
 correlation: LDA (PW) + TPSS
 Dummy atoms with grid-point found.
 DFT quadrature threshold dgrenze tightened by factor 1/10.

 Dummy atoms with grid-point found.
 DFT quadrature threshold dgrenze tightened by factor 1/10.


 iterations will be done with small grid
  
 spherical integration : Lebedev's spherical grid
 spherical gridsize    :                     5
    i.e. gridpoints    :                   590
 value for diffuse not defined
 radial integration    : Chebyshev 2nd kind (scaling 3)
 radial gridsize       :                     8
 integration cells     :                    19
 partition function    : becke
 partition sharpness   :                     3
  
 found dummy atom(s) with basis: included in dft

 biggest AO integral is expected to be     4.785886462
  
           ------------------------
               RI-J - INFORMATION
           ------------------------
 Contributions to RI integral batches: 
  neglected integral batches:                  5901
  direct contribution:                            0
  memory contribution:                 19524
 Memory core needed for (P|Q) and Cholesky      2 MByte
 Memory core minimum needed except of (P|Q)     3 MByte
 Total minimum memory core needed (sum)         5 MByte
  
 ****************************************
 Memory allocated for RI-J  1329 MByte
 ****************************************
                                            

          ------------------------
          nuclear repulsion energy  :   42.0379135714    
          ------------------------


         -----------------
         -S,T+V- integrals
         -----------------

 1e-integrals will be neglected if expon. factor < 0.367249E-14
 Difference densities >>NOT<< switched on in parallel ridft!

 DIIS switched on: error vector is FDS-SDF
 Max. Iterations for DIIS is     :   4
 DIIS matrix (see manual) 
    Scaling factor of diagonals  :  1.200
    threshold for scaling factor :  0.000

 scf convergence criterion : increment of total energy < .1000000D-08
                  and increment of one-electron energy < .1000000D-05

  MOs are in ASCII format !


 automatic virtual orbital shift switched on 
      shift if e(lumo)-e(homo) < 0.10000000    


 reading orbital data $scfmo  from file mos
 orbital characterization : expanded
 mo provided and orthogonalized by Cholesky decomposition

 DSCF restart information will be dumped onto file mos


 Starting SCF iterations

          Overall gridpoints after grid construction =        106483

 ITERATION  ENERGY          1e-ENERGY        2e-ENERGY     RMS[dD(SAO)]   TOL
   1  -95.526578564551    -210.05863018     72.494138043    0.000D+00 0.366D-13
                            Exc = -13.9535155232     Coul =  86.4476535666    
                              N = 17.999941790    
                            current damping = 0.700
 
          max. resid. norm for Fia-block=  2.765D-01 for orbital      1a         
          max. resid. fock norm         =  2.720D+01 for orbital    702a         

 ITERATION  ENERGY          1e-ENERGY        2e-ENERGY     RMS[dD(SAO)]   TOL
   2  -95.827827263815    -211.02025819     73.154517359    0.140D-02 0.366D-13
                            Exc = -14.0886459825     Coul =  87.2431633412    
                              N = 17.999950144    
                            current damping = 0.650
 
          Norm of current diis error:  1.7654    
          max. resid. norm for Fia-block=  1.249D-01 for orbital      1a         
          max. resid. fock norm         =  1.627D-01 for orbital    692a         

 ITERATION  ENERGY          1e-ENERGY        2e-ENERGY     RMS[dD(SAO)]   TOL
   3  -95.892698258247    -211.43613405     73.505522219    0.660D-03 0.366D-13
                            Exc = -14.1812453923     Coul =  87.6867676114    
                              N = 17.999955986    
                            current damping = 0.500
 
          Norm of current diis error: 0.82512    
          max. resid. norm for Fia-block=  5.024D-02 for orbital      1a         
          max. resid. fock norm         =  5.252D-02 for orbital      1a         

 ITERATION  ENERGY          1e-ENERGY        2e-ENERGY     RMS[dD(SAO)]   TOL
   4  -95.913473046730    -211.51270671     73.561320095    0.468D-03 0.366D-13
                            Exc = -14.2151264981     Coul =  87.7764465930    
                              N = 17.999959205    
                            current damping = 0.350
 
          Norm of current diis error: 0.28999    
          max. resid. norm for Fia-block=  1.957D-02 for orbital      4a         
          max. resid. fock norm         =  2.593D-02 for orbital    714a         

 ITERATION  ENERGY          1e-ENERGY        2e-ENERGY     RMS[dD(SAO)]   TOL
   5  -95.916736763381    -211.70229706     73.747646727    0.256D-03 0.366D-13
                            Exc = -14.2495563880     Coul =  87.9972031149    
                              N = 17.999961306    
                            current damping = 0.200
 
          Norm of current diis error: 0.11553    
          max. resid. norm for Fia-block=  9.306D-03 for orbital      9a         
          max. resid. fock norm         =  1.122D-02 for orbital    695a         
          mo-orthogonalization: Cholesky decomposition

 ITERATION  ENERGY          1e-ENERGY        2e-ENERGY     RMS[dD(SAO)]   TOL
   6  -95.917138121953    -211.57190846     73.616856763    0.152D-03 0.366D-13
                            Exc = -14.2384745754     Coul =  87.8553313382    
                              N = 17.999961441    
                            current damping = 0.250
 
          Norm of current diis error: 0.70182E-01
          max. resid. norm for Fia-block=  2.422D-03 for orbital      5a         
          max. resid. fock norm         =  4.156D-03 for orbital    714a         

 ITERATION  ENERGY          1e-ENERGY        2e-ENERGY     RMS[dD(SAO)]   TOL
   7  -95.917235904297    -211.64756713     73.692417650    0.164D-04 0.366D-13
                            Exc = -14.2473419188     Coul =  87.9397595689    
                              N = 17.999961775    
                            current damping = 0.300
 
          Norm of current diis error: 0.74493E-02
          max. resid. norm for Fia-block=  4.517D-04 for orbital      7a         
          max. resid. fock norm         =  1.356D-03 for orbital    696a         

 ITERATION  ENERGY          1e-ENERGY        2e-ENERGY     RMS[dD(SAO)]   TOL
   8  -95.917236799133    -211.63994096     73.684790585    0.521D-05 0.366D-13
                            Exc = -14.2468369976     Coul =  87.9316275824    
                              N = 17.999961791    
                            current damping = 0.350
 
          Norm of current diis error: 0.47837E-02
          max. resid. norm for Fia-block=  1.684D-04 for orbital      7a         
          max. resid. fock norm         =  3.647D-04 for orbital    697a         

 ITERATION  ENERGY          1e-ENERGY        2e-ENERGY     RMS[dD(SAO)]   TOL
   9  -95.917237295149    -211.64406126     73.688910396    0.131D-05 0.366D-13
                            Exc = -14.2472455086     Coul =  87.9361559045    
                              N = 17.999961809    
                            current damping = 0.400
 
          Norm of current diis error: 0.61903E-03
          max. resid. norm for Fia-block=  3.821D-05 for orbital      9a         
          max. resid. fock norm         =  1.291D-04 for orbital    696a         

 ITERATION  ENERGY          1e-ENERGY        2e-ENERGY     RMS[dD(SAO)]   TOL
  10  -95.917237305102    -211.64427851     73.689127629    0.372D-06 0.366D-13
                            Exc = -14.2472669892     Coul =  87.9363946184    
                              N = 17.999961811    
                            current damping = 0.250
 
          Norm of current diis error: 0.14108E-03
          max. resid. norm for Fia-block=  1.051D-05 for orbital      5a         
          max. resid. fock norm         =  5.126D-05 for orbital    696a         
          mo-orthogonalization: Cholesky decomposition

 ITERATION  ENERGY          1e-ENERGY        2e-ENERGY     RMS[dD(SAO)]   TOL
  11  -95.917237305722    -211.64447336     73.689322487    0.116D-06 0.366D-13
                            Exc = -14.2472893293     Coul =  87.9366118168    
                              N = 17.999961813    
                            current damping = 0.100
 
          Norm of current diis error: 0.57397E-04
          max. resid. norm for Fia-block=  4.262D-06 for orbital      9a         
          max. resid. fock norm         =  1.141D-05 for orbital    696a         

 DENSITY CONVERGED !


 ITERATION  ENERGY          1e-ENERGY        2e-ENERGY     RMS[dD(SAO)]   TOL
  12  -95.917237305776    -211.64437778     73.689226900    0.517D-07 0.366D-13
                            Exc = -14.2472794845     Coul =  87.9365063841    
                              N = 17.999961813    
                            current damping = 0.150
 
          Norm of current diis error: 0.39773E-04
          max. resid. norm for Fia-block=  1.348D-06 for orbital      9a         
          max. resid. fock norm         =  2.622D-06 for orbital    696a         

 DENSITY CONVERGED !


 ITERATION  ENERGY          1e-ENERGY        2e-ENERGY     RMS[dD(SAO)]   TOL
  13  -95.917237305807    -211.64440832     73.689257445    0.135D-07 0.366D-13
                            Exc = -14.2472830553     Coul =  87.9365405001    
                              N = 17.999961813    
                            current damping = 0.200
 
          Norm of current diis error: 0.93439E-05
          max. resid. norm for Fia-block=  4.294D-07 for orbital      7a         
          max. resid. fock norm         =  1.062D-06 for orbital    697a         

 ENERGY & DENSITY CONVERGED !

          Overall gridpoints after grid construction =        285234

 ITERATION  ENERGY          1e-ENERGY        2e-ENERGY     RMS[dD(SAO)]   TOL
  14  -95.917219163639    -211.64441498     73.689282244    0.312D-08 0.366D-13
                            Exc = -14.2472654648     Coul =  87.9365477085    
                              N = 18.000004300    
                            current damping = 0.050
 
          Norm of current diis error: 0.25315E-05
          max. resid. norm for Fia-block=  9.770D-08 for orbital      6a         
          max. resid. fock norm         =  1.466D-07 for orbital    696a         

 End of SCF iterations

   convergence criteria satisfied after    14 iterations


                  ------------------------------------------ 
                 |  total energy      =    -95.91721916364  |
                  ------------------------------------------ 
                 :  kinetic energy    =     95.50902773105  :
                 :  potential energy  =   -191.42624689469  :
                 :  virial theorem    =      1.99574433625  :
                 :  wavefunction norm =      1.00000000000  :
                  .......................................... 


 <geterg> : there is no data group $energy 


 <skperg> : $end is missing 


 orbitals $scfmo  will be written to file mos

    irrep                  5a          6a          7a          8a          9a   
 eigenvalues H         -0.44562    -0.39871    -0.36275    -0.33144    -0.20403
            eV         -12.1262    -10.8495     -9.8709     -9.0189     -5.5521
 occupation              2.0000      2.0000      2.0000      2.0000      2.0000 

    irrep                 10a         11a         12a         13a         14a   
 eigenvalues H          0.00594     0.04274     0.05368     0.05507     0.08593
            eV           0.1616      1.1631      1.4606      1.4985      2.3382
 
 
 
 
 ==============================================================================
                           electrostatic moments
 ==============================================================================

 reference point for electrostatic moments:    0.00000   0.00000   0.00000

 
              nuc           elec       ->  total
 ------------------------------------------------------------------------------
                          charge      
 ------------------------------------------------------------------------------
          18.000000     -18.000000      -0.000000
 
 ------------------------------------------------------------------------------
                       dipole moment  
 ------------------------------------------------------------------------------
   x      84.425825     -83.883914       0.541911
   y     -15.785141      15.759788      -0.025352
   z      12.288736     -12.281964       0.006772
 
   | dipole moment | =     0.5425 a.u. =     1.3790 debye 
 
 ------------------------------------------------------------------------------
                     quadrupole moment
 ------------------------------------------------------------------------------
  xx     403.850507    -410.702128      -6.851621
  yy      59.501395     -69.505972     -10.004577
  zz      18.910649     -28.400490      -9.489841
  xy     -80.189379      80.923515       0.734136
  xz      58.275713     -58.035582       0.240131
  yz     -14.623652      14.671447       0.047795
 
     1/3  trace=      -8.782013
     anisotropy=       3.221777
 
 ==============================================================================
 


    ------------------------------------------------------------------------
         total  cpu-time : 11 minutes and 14 seconds
         total wall-time :  1 minutes and 39 seconds
    ------------------------------------------------------------------------

   ****  ridft : all done  ****


    2018-04-28 21:01:59.573 

