Using Slurm to start processes with PMI2
STARTING ridft ON 8 PROCESSORS!
RUNNING PROGRAM /beegfs/modfac/apps/TURBOMOLE/7.0_intel_GA/bin/em64t-unknown-linux-gnu_mpi/ridft_mpi.
PLEASE WAIT UNTIL ridft HAS FINISHED.
Look for the output in slave1.output.
  this is node-proc. number 1 running on node c-6-29.local
  the total number of node-proc. spawned is            8
  parallel platform: MPP, or cluster with fast interconnect

 ridft (c-6-29.local) : TURBOMOLE V7.0.2( ) 15 Jan 2016 at 17:47:42
 Copyright (C) 2016 TURBOMOLE GmbH, Karlsruhe


    2018-02-01 18:23:19.256 



                                  r i d f t

                        DFT program with RI approximation 
                                for coulomb part 




                                                 
                                 References:     
                                                 
          TURBOMOLE:                             
              R. Ahlrichs, M. Baer, M. Haeser, H. Horn, and
              C. Koelmel
              Electronic structure calculations on workstation
              computers: the program system TURBOMOLE
              Chem. Phys. Lett. 162: 165 (1989)
          Density Functional:                              
              O. Treutler and R. Ahlrichs                      
              Efficient Molecular Numerical Integration Schemes
              J. Chem. Phys. 102: 346 (1995)                   
          Parallel Version:                                
              Performance of parallel TURBOMOLE for Density    
              Functional Calculations                          
              M. v. Arnim and R. Ahlrichs                      
              J. Comp. Chem. 19: 1746 (1998)                   
          RI-J Method:                                     
              Auxiliary Basis Sets to approximate Coulomb      
              Potentials                                       
              Chem. Phys. Lett. 240: 283 (1995)                
              K. Eichkorn, O. Treutler, H. Oehm, M. Haeser     
              and R. Ahlrichs                                  
              Chem. Phys. Lett. 242: 652 (1995)                
                                                           
              Auxiliary Basis Sets for Main Row Atoms and their
              Use to approximate Coulomb Potentials            
              K. Eichkorn, F. Weigend, O. Treutler and         
              R. Ahlrichs                                      
              Theo. Chem. Acc. 97: 119 (1997)                   
                                                           
              Accurate Coulomb-fitting basis sets for H to Rn 
              F. Weigend                                        
              Phys. Chem. Chem. Phys. 8: 1057 (2006)            
                                                           
          Multipole accelerated RI-J (MARI-J):             
              Fast evaluation of the Coulomb potential for     
              electron densities using multipole accelerated   
              resolution of identity approximation             
              M. Sierka, A. Hogekamp and R. Ahlrichs           
              J. Chem. Phys. 118: 9136 (2003)                  
          RI-JK Method:                                     
              A fully direct RI-HF algorithm: Implementation,
              optimised auxiliary basis sets, demonstration of
              accuracy and efficiency                         
              F. Weigend                                      
              Phys. Chem. Chem. Phys. 4: 4285 (2002)           
          Two-component HF and DFT with spin-orbit coupling:  
              Self-consistent treatment of spin-orbit         
              interactions with efficient Hartree-Fock and    
              density functional methods                      
              M. K. Armbruster, F. Weigend, C. van Wüllen and 
              W. Klopper                                      
              Phys. Chem. Chem. Phys. 10: 1748 (2008)         
          Relativistic all-electron 2c calculations           
              An efficient implementation of two-component    
              relativistic exact-decoupling methods for large 
              molecules                                       
              D. Peng, N. Middendorf, F. Weigend, M. Reiher   
              J. Chem. Phys. 138, 184105 (2013)               
                                         


 


              +--------------------------------------------------+
              |      general information about current run       |
              +--------------------------------------------------+

 

 SCF run will be profiled !


 DENSITY CONVERGENCE CHECK SWITCHED ON !
 SCF CONVERGENCE IF RMS(delta[D]) <     0.1000000000E-06

 TPSS meta-GGA functional
 exchange:    LDA + TPSS
 correlation: LDA (PW) + TPSS
 A DFT calculation using the RI-J approximation will be carried out.
 Allocatable memory for RI due to $ricore (MB):        5000


              +--------------------------------------------------+
              | Atomic coordinate, charge and isotop information |
              +--------------------------------------------------+

                    atomic coordinates            atom    charge  isotop
         -3.02021322   -5.57287040    6.14160993    c      6.000     0
         -7.55992498   -5.49254003    6.14160993    c      6.000     0
         -7.57917751   -2.96661681    6.14160993    c      6.000     0
         -5.13872849   -1.73612541    6.14160993    c      6.000     0
         -5.34962382   -6.77813772    6.14160993    n      7.000     0
         -3.01397334   -3.02330859    6.14160993    n      7.000     0
         -5.01381949    0.76047871    6.14160993    n      7.000     0
         -1.13019040   -6.85880446    6.14160993    o      8.000     0
         -5.30378284   -8.65690911    6.14160993    h      1.000     0
         -9.25454067   -6.60873133    6.14160993    h      1.000     0
         -9.30421779   -1.90668642    6.14160993    h      1.000     0
         -6.57529074    1.79538156    6.14160993    h      1.000     0
         -3.32233507    1.63396871    6.14160993    h      1.000     0
          2.02057455    2.09509212    6.14160993    c      6.000     0
          4.31882924   -1.93152310    6.14160993    c      6.000     0
          6.52909072    1.59570364    6.14160993    c      6.000     0
          4.48320895    3.19202901    6.14160993    c      6.000     0
          7.66977287    5.57318976    6.14160993    c      6.000     0
          2.15879290   -0.53650459    6.14160993    n      7.000     0
          6.57508098   -0.94499535    6.14160993    n      7.000     0
          5.26063662    5.68364992    6.14160993    n      7.000     0
          8.57326795    3.13252153    6.14160993    n      7.000     0
          4.03373759   -4.43966966    6.14160993    n      7.000     0
         -0.02458345    3.12065405    6.14160993    o      8.000     0
          0.48192174   -1.43893196    6.14160993    h      1.000     0
          8.92516519    7.16093010    6.14160993    h      1.000     0
         10.36302946    2.57112358    6.14160993    h      1.000     0
          5.59543373   -5.47388087    6.14160993    h      1.000     0
          2.33979087   -5.28069984    6.14160993    h      1.000     0
 
       center of nuclear mass  :    0.69155294   -0.85881381    6.14160993
       center of nuclear charge:    0.64423729   -0.88671593    6.14160993

              +--------------------------------------------------+
              |               basis set information              |
              +--------------------------------------------------+

              we will work with the 1s 3p 5d 7f 9g ... basis set
              ...i.e. with spherical basis functions...

   type   atoms  prim   cont   basis
   ---------------------------------------------------------------------------
    c        9     50     30   cc-pVTZ   [4s3p2d1f|18s5p2d1f]
    n        8     50     30   cc-pVTZ   [4s3p2d1f|18s5p2d1f]
    o        2     50     30   cc-pVTZ   [4s3p2d1f|18s5p2d1f]
    h       10     16     14   cc-pVTZ   [3s2p1d|5s2p1d]
   ---------------------------------------------------------------------------
   total:   29   1110    710
   ---------------------------------------------------------------------------

   total number of primitive shells          :   86
   total number of contracted shells         :  250
   total number of cartesian basis functions :  815
   total number of SCF-basis functions       :  710


 integral neglect threshold       :  0.41E-13
 integral storage threshold THIZE :  0.10E-04
 integral storage threshold THIME :         5

 RI-J AUXILIARY BASIS SET information:

              we will work with the 1s 3p 5d 7f 9g ... basis set
              ...i.e. with spherical basis functions...

   type   atoms  prim   cont   basis
   ---------------------------------------------------------------------------
    c        9     70     49   cc-pVTZ   [6s4p3d1f1g|12s5p4d2f1g]
    n        8     70     49   cc-pVTZ   [6s4p3d1f1g|12s5p4d2f1g]
    o        2     70     49   cc-pVTZ   [6s4p3d1f1g|12s5p4d2f1g]
    h       10     16     11   cc-pVTZ   [3s1p1d|5s2p1d]
   ---------------------------------------------------------------------------
   total:   29   1490   1041
   ---------------------------------------------------------------------------

   total number of primitive shells          :   80
   total number of contracted shells         :  335
   total number of cartesian basis functions : 1279
   total number of SCF-basis functions       : 1041


 symmetry group of the molecule :   c1 

 the group has the following generators :
   c1(z)

    1 symmetry operations found

 there are 1 real representations :   a   

 maximum number of shells which are related by symmetry :  1


    mo occupation :
   irrep   mo's   occupied
    a      710       68
 
 number of basis functions   :          710
 number of occupied orbitals :           68
 
  
           ------------------
           density functional
           ------------------
 TPSS meta-GGA functional
 exchange:    LDA + TPSS
 correlation: LDA (PW) + TPSS
 grinp -> nfun, dfgga, dfhybrid 
           5 F F
 iterations will be done with small grid
  
 spherical integration : Lebedev's spherical grid
 spherical gridsize    :           5
    i.e. gridpoints    :         590
 value for diffuse not defined
 radial integration    : Chebyshev 2nd kind (scaling 3)
 radial gridsize       :           8
 integration cells     :          29
 partition function    : becke
 partition sharpness   :           3
  

 <rddim> : input of entry tasksize
           from data group '$pardft' failed !

               Default values taken

 <rddim> : input of entry memdiv
           from data group '$pardft' failed !

               Default values taken
  RIDFT: memory allocation for DFT gridpoints
  MEMORY is divided by 1 as DEFAULT
 Each node can hold at most  the            1 -th part
 of the gridpoints    

 biggest AO integral is expected to be     4.866064444
  
           ------------------------
               RI-J - INFORMATION
           ------------------------
 
 
 **************************************************
 *      MEMORY ALLOCATION FOR PARALLEL RI-DFT     *
 **************************************************
 
 
MEMORY FOR (MU NU/ ALPHA), SEQUENTIAL RUN               4992 MByte
 
            DIFFERENCE IN MEMORY NEED:       DIAG./SLAVE  
 
      TOTAL DIFFERENCE :                     29 MByte
 
      difference in xcore:                    9 MByte
      difference in fatmat:                   8 MByte
      getcor calls skipped by slaves:        13 MByte
 
 
           Integral memory available for diagonal.      4992 MByte
 
           Integral memory available for slave             0 MByte
 
         MEMORY FOR (MU NU/ ALPHA) ON DIAGONALIZER      4992 MByte
 
         MEMORY FOR (MU NU/ ALPHA) ON ONE SLAVE            0 MByte
 
         TOTAL MEMORY FOR (MU NU/ ALPHA),ALL NODES      4992 MByte
 
 Contributions to RI integral batches: 
  neglected integral batches:       11048
  direct contribution:                  0
  memory contribution:       20327
 Memory core needed for (P|Q) and Cholesky      9 MByte
 Memory core minimum needed except of (P|Q)     2 MByte
 Total minimum memory core needed (sum)        11 MByte
  
 ****************************************
 Memory allocated for RI-J  5002 MByte
 ****************************************
                                            

          ------------------------
          nuclear repulsion energy  :   1391.97687302    
          ------------------------

 
          -----------------
          -S integrals
          -----------------

 1e-integrals will be neglected if expon. factor < 0.410057E-14
 
          -----------------
          -T+V integrals
          -----------------

 1e-integrals will be neglected if expon. factor < 0.410057E-14
 Difference densities >>NOT<< switched on in parallel ridft!

 automatic virtual orbital shift switched on 
      shift if e(lumo)-e(homo) < 0.10000000    


 DIIS switched on: error vector is FDS-SDF
 Max. Iterations for DIIS is     :   4
 DIIS matrix (see manual) 
    Scaling factor of diagonals  :  1.200
    threshold for scaling factor :  0.000

 scf convergence criterion : increment of total energy < .1000000D-08
                  and increment of one-electron energy < .1000000D-05


 <geterg> : there is no data group $energy 

  MOs are in ASCII format !


 reading orbital data $scfmo  from file mos . 

 orbital characterization : expanded
 
 mo provided and orthogonalized by Cholesky decomposition

 DSCF restart information will be dumped onto file mos


 Starting SCF iterations


 ITERATION  ENERGY          1e-ENERGY        2e-ENERGY     RMS[dD(SAO)]   TOL
   1  -934.04026670933    -4020.1349789     1694.1178391    0.000D+00 0.409D-13
                            Exc = -124.911908204     Coul =  1819.02974732    
                              N = 136.00003512    
                            current damping = 0.700
 
          max. resid. norm for Fia-block=  3.615D-01 for orbital     57a         
          max. resid. fock norm         =  4.893D+00 for orbital    662a         

 ITERATION  ENERGY          1e-ENERGY        2e-ENERGY     RMS[dD(SAO)]   TOL
   2  -937.34337320850    -4035.0097329     1705.6894866    0.329D-02 0.409D-13
                            Exc = -125.126444988     Coul =  1830.81593161    
                              N = 136.00003282    
                            current damping = 0.650
 
          Norm of current diis error:  3.7280    
          max. resid. norm for Fia-block=  1.627D-01 for orbital      2a         
          max. resid. fock norm         =  3.201D-01 for orbital    696a         

 ITERATION  ENERGY          1e-ENERGY        2e-ENERGY     RMS[dD(SAO)]   TOL
   3  -937.83210682594    -4039.8659477     1710.0569678    0.181D-02 0.409D-13
                            Exc = -125.644568239     Coul =  1835.70153605    
                              N = 136.00003078    
                            current damping = 0.550
 
          Norm of current diis error:  1.7927    
          max. resid. norm for Fia-block=  6.405D-02 for orbital      2a         
          max. resid. fock norm         =  6.881D-02 for orbital    693a         

 ITERATION  ENERGY          1e-ENERGY        2e-ENERGY     RMS[dD(SAO)]   TOL
   4  -937.97707519779    -4040.6702545     1710.7163063    0.146D-02 0.409D-13
                            Exc = -125.592516511     Coul =  1836.30882277    
                              N = 136.00003355    
                            current damping = 0.450
 
          Norm of current diis error: 0.75081    
          max. resid. norm for Fia-block=  3.594D-02 for orbital     57a         
          max. resid. fock norm         =  7.159D-02 for orbital    669a         

 ITERATION  ENERGY          1e-ENERGY        2e-ENERGY     RMS[dD(SAO)]   TOL
   5  -937.99679142014    -4041.6277522     1711.6540878    0.595D-03 0.409D-13
                            Exc = -125.763446296     Coul =  1837.41753408    
                              N = 136.00003063    
                            current damping = 0.350
 
          Norm of current diis error: 0.47634    
          max. resid. norm for Fia-block=  1.861D-02 for orbital     66a         
          max. resid. fock norm         =  2.324D-02 for orbital     66a         
          mo-orthogonalization: Cholesky decomposition

 ITERATION  ENERGY          1e-ENERGY        2e-ENERGY     RMS[dD(SAO)]   TOL
   6  -938.00727071433    -4042.1002930     1712.1161493    0.462D-03 0.409D-13
                            Exc = -125.749118884     Coul =  1837.86526814    
                              N = 136.00003247    
                            current damping = 0.200
 
          Norm of current diis error: 0.14855    
          max. resid. norm for Fia-block=  5.373D-03 for orbital     59a         
          max. resid. fock norm         =  1.011D-02 for orbital    669a         

 ITERATION  ENERGY          1e-ENERGY        2e-ENERGY     RMS[dD(SAO)]   TOL
   7  -938.00764761922    -4041.7051435     1711.7206228    0.182D-03 0.409D-13
                            Exc = -125.733676321     Coul =  1837.45429914    
                              N = 136.00003179    
                            current damping = 0.250
 
          Norm of current diis error: 0.12737    
          max. resid. norm for Fia-block=  2.848D-03 for orbital     68a         
          max. resid. fock norm         =  5.021D-03 for orbital    699a         

 ITERATION  ENERGY          1e-ENERGY        2e-ENERGY     RMS[dD(SAO)]   TOL
   8  -938.00838455778    -4041.8383535     1711.8530959    0.747D-04 0.409D-13
                            Exc = -125.741281267     Coul =  1837.59437714    
                              N = 136.00003195    
                            current damping = 0.300
 
          Norm of current diis error: 0.26661E-01
          max. resid. norm for Fia-block=  1.038D-03 for orbital     63a         
          max. resid. fock norm         =  1.776D-03 for orbital    700a         

 ITERATION  ENERGY          1e-ENERGY        2e-ENERGY     RMS[dD(SAO)]   TOL
   9  -938.00838999262    -4041.9483235     1711.9630605    0.221D-04 0.409D-13
                            Exc = -125.749816161     Coul =  1837.71287664    
                              N = 136.00003192    
                            current damping = 0.150
 
          Norm of current diis error: 0.23440E-01
          max. resid. norm for Fia-block=  5.666D-04 for orbital     67a         
          max. resid. fock norm         =  9.817D-04 for orbital    675a         

 ITERATION  ENERGY          1e-ENERGY        2e-ENERGY     RMS[dD(SAO)]   TOL
  10  -938.00840898617    -4041.9175058     1711.9322238    0.176D-04 0.409D-13
                            Exc = -125.746518389     Coul =  1837.67874216    
                              N = 136.00003202    
                            current damping = 0.200
 
          Norm of current diis error: 0.12199E-01
          max. resid. norm for Fia-block=  2.667D-04 for orbital     54a         
          max. resid. fock norm         =  4.352D-04 for orbital    702a         
          mo-orthogonalization: Cholesky decomposition

 ITERATION  ENERGY          1e-ENERGY        2e-ENERGY     RMS[dD(SAO)]   TOL
  11  -938.00841517997    -4041.9086159     1711.9233277    0.607D-05 0.409D-13
                            Exc = -125.746185816     Coul =  1837.66951351    
                              N = 136.00003197    
                            current damping = 0.050
 
          Norm of current diis error: 0.25578E-02
          max. resid. norm for Fia-block=  8.993D-05 for orbital     68a         
          max. resid. fock norm         =  1.470D-04 for orbital    697a         

 ITERATION  ENERGY          1e-ENERGY        2e-ENERGY     RMS[dD(SAO)]   TOL
  12  -938.00841504733    -4041.9036078     1711.9183197    0.206D-05 0.409D-13
                            Exc = -125.746186793     Coul =  1837.66450647    
                              N = 136.00003197    
                            current damping = 0.100
 
          Norm of current diis error: 0.31102E-02
          max. resid. norm for Fia-block=  4.724D-05 for orbital     68a         
          max. resid. fock norm         =  7.349D-05 for orbital    697a         

 ITERATION  ENERGY          1e-ENERGY        2e-ENERGY     RMS[dD(SAO)]   TOL
  13  -938.00841544019    -4041.9074732     1711.9221847    0.108D-05 0.409D-13
                            Exc = -125.746157722     Coul =  1837.66834243    
                              N = 136.00003197    
                            current damping = 0.150
 
          Norm of current diis error: 0.63875E-03
          max. resid. norm for Fia-block=  1.677D-05 for orbital     57a         
          max. resid. fock norm         =  2.497D-05 for orbital    698a         

 ITERATION  ENERGY          1e-ENERGY        2e-ENERGY     RMS[dD(SAO)]   TOL
  14  -938.00841545038    -4041.9075100     1711.9222215    0.333D-06 0.409D-13
                            Exc = -125.746236227     Coul =  1837.66845774    
                              N = 136.00003197    
                            current damping = 0.050
 
          Norm of current diis error: 0.39942E-03
          max. resid. norm for Fia-block=  8.039D-06 for orbital     62a         
          max. resid. fock norm         =  1.403D-05 for orbital    708a         

 ITERATION  ENERGY          1e-ENERGY        2e-ENERGY     RMS[dD(SAO)]   TOL
  15  -938.00841545566    -4041.9076155     1711.9223270    0.218D-06 0.409D-13
                            Exc = -125.746194117     Coul =  1837.66852113    
                              N = 136.00003197    
                            current damping = 0.050
 
          Norm of current diis error: 0.17674E-03
          max. resid. norm for Fia-block=  4.132D-06 for orbital     65a         
          max. resid. fock norm         =  7.056D-06 for orbital     25a         
          mo-orthogonalization: Cholesky decomposition

 ITERATION  ENERGY          1e-ENERGY        2e-ENERGY     RMS[dD(SAO)]   TOL
  16  -938.00841545639    -4041.9076280     1711.9223395    0.111D-06 0.409D-13
                            Exc = -125.746185200     Coul =  1837.66852469    
                              N = 136.00003197    
                            current damping = 0.050
 
          Norm of current diis error: 0.11477E-03
          max. resid. norm for Fia-block=  3.076D-06 for orbital     65a         
          max. resid. fock norm         =  5.616D-06 for orbital    700a         

 DENSITY CONVERGED !


 ITERATION  ENERGY          1e-ENERGY        2e-ENERGY     RMS[dD(SAO)]   TOL
  17  -938.00841545687    -4041.9075925     1711.9223040    0.690D-07 0.409D-13
                            Exc = -125.746202518     Coul =  1837.66850654    
                              N = 136.00003197    
                            current damping = 0.100
 
          Norm of current diis error: 0.46307E-04
          max. resid. norm for Fia-block=  1.507D-06 for orbital     65a         
          max. resid. fock norm         =  2.766D-06 for orbital    700a         

 DENSITY CONVERGED !


 ITERATION  ENERGY          1e-ENERGY        2e-ENERGY     RMS[dD(SAO)]   TOL
  18  -938.00841545696    -4041.9076104     1711.9223219    0.307D-07 0.409D-13
                            Exc = -125.746196836     Coul =  1837.66851874    
                              N = 136.00003197    
                            current damping = 0.150
 
          Norm of current diis error: 0.22370E-04
          max. resid. norm for Fia-block=  6.575D-07 for orbital     65a         
          max. resid. fock norm         =  1.095D-06 for orbital    700a         

 ENERGY & DENSITY CONVERGED !


 ITERATION  ENERGY          1e-ENERGY        2e-ENERGY     RMS[dD(SAO)]   TOL
  19  -938.00802495463    -4041.9076065     1711.9227085    0.144D-07 0.409D-13
                            Exc = -125.745805799     Coul =  1837.66851428    
                              N = 135.99999440    
                            current damping = 0.200
 
          Norm of current diis error: 0.93402E-05
          max. resid. norm for Fia-block=  2.102D-07 for orbital     54a         
          max. resid. fock norm         =  3.241D-07 for orbital     54a         

 End of SCF iterations

   convergence criteria satisfied after   19 iterations


                  ------------------------------------------ 
                 |  total energy      =   -938.00802495463  |
                  ------------------------------------------ 
                 :  kinetic energy    =    934.09674850045  :
                 :  potential energy  =  -1872.10477345508  :
                 :  virial theorem    =      1.99583023135  :
                 :  wavefunction norm =      1.00000000000  :
                  .......................................... 


 <geterg> : there is no data group $energy 


 <skperg> : $end is missing 


 orbitals $scfmo  will be written to file mos

    irrep                 64a         65a         66a         67a         68a   
 eigenvalues H         -0.22712    -0.22320    -0.21377    -0.20533    -0.16683
            eV          -6.1802     -6.0736     -5.8171     -5.5873     -4.5398
 occupation              2.0000      2.0000      2.0000      2.0000      2.0000 

    irrep                 69a         70a         71a         72a         73a   
 eigenvalues H         -0.06857    -0.02144    -0.01217     0.00048     0.00405
            eV          -1.8658     -0.5835     -0.3311      0.0131      0.1102
 
 
 ! grave: sending quit signal to master process
 
 
 
 
 ==============================================================================
                           electrostatic moments
 ==============================================================================

 reference point for electrostatic moments:    0.00000   0.00000   0.00000

 
              nuc           elec       ->  total
 ------------------------------------------------------------------------------
                          charge      
 ------------------------------------------------------------------------------
         136.000000    -136.000000      -0.000000
 
 ------------------------------------------------------------------------------
                       dipole moment  
 ------------------------------------------------------------------------------
   x      87.616272     -89.228991      -1.612719
   y    -120.593366     118.973162      -1.620205
   z     835.258951    -835.258951      -0.000000
 
   | dipole moment | =     2.2860 a.u. =     5.8105 debye 
 
 ------------------------------------------------------------------------------
                     quadrupole moment
 ------------------------------------------------------------------------------
  xx    3852.641636   -3896.801358     -44.159722
  yy    2280.633262   -2358.211382     -77.578120
  zz    5129.834668   -5211.887302     -82.052635
  xy    1645.863375   -1634.421469      11.441906
  xz     538.104963    -548.009656      -9.904693
  yz    -740.637417     730.686752      -9.950664
 
     1/3  trace=     -67.930159
     anisotropy=      47.649232
 
 ==============================================================================
 

    ridft profiling
  --------------------------------------------------------------------
             module   cpu total (s)       %  wall total (s)       %

               RIDFT           265.3  100.00           265.5  100.00
         Ridft_b_scf            10.5    3.98            10.5    3.97
        b_scf_prelim             0.0    0.00             0.0    0.00
        b_scf_molinp             0.0    0.01             0.0    0.01
         b_scf_init0             0.0    0.00             0.0    0.00
        b_scf_auxbas             0.0    0.01             0.0    0.01
      b_scf_symmetry             0.0    0.00             0.0    0.00
         b_scf_cosmo             0.0    0.00             0.0    0.00
        b_scf_params             0.3    0.12             0.3    0.12
          b_scf_ri-j             9.0    3.40             9.0    3.40
    b_scf_ri-j_auxpq             9.0    3.40             9.0    3.39
     ri-j_auxpq_chol             0.2    0.07             0.2    0.07
         b_scf_1elec             0.2    0.07             0.2    0.07
       b_scf_moinput             1.0    0.37             1.0    0.37
     moinput_orthmos             0.9    0.34             0.9    0.34
    b_scf_dft-dstmax             0.0    0.00             0.0    0.00
           Ridft_scf           254.6   95.99           254.8   95.99
          Scf_b_loop             0.0    0.00             0.0    0.00
                noga             0.0    0.00             0.0    0.00
            Scf_loop           254.2   95.85           254.4   95.83
     scf_loop_mkdmat             0.5    0.20             0.6    0.21
       scf_loop_ri-j             9.8    3.69             9.9    3.72
      parlp1.bc.dens             1.0    0.37             1.0    0.37
        parlp1.gs.gp             0.0    0.00             0.0    0.00
        parlp2.bc.gq             0.0    0.00             0.0    0.00
        scf_loop_dft           226.7   85.48           226.7   85.42
      pardft.bc.dens             0.0    0.00             0.0    0.00
        dft_grid_con             0.4    0.15             0.4    0.15
          dft_xcmrhf           224.0   84.43           224.0   84.37
          dft_getval             7.3    2.74             7.3    2.74
          funct2 dst             0.1    0.06             0.1    0.05
      funct2 f2loop1             1.8    0.69             1.8    0.68
      funct2 f2loop2             3.4    1.27             3.4    1.27
          funct2 s+c             1.6    0.62             1.6    0.62
        funct2 cmf_2             1.4    0.51             1.4    0.51
          dft_mkdens           110.0   41.49           110.1   41.47
        dft_mgga-fun             0.6    0.21             0.5    0.20
          dft_mkfock           105.8   39.89           105.8   39.85
     pardft.red.fock            17.9    6.75            17.9    6.74
     scf_loop_energy             0.0    0.01             0.0    0.01
     scf_loop_mkfock             0.0    0.00             0.0    0.00
       scf_loop_diis             5.3    2.01             5.3    2.01
       scf_loop_diag             5.2    1.96             5.2    1.96
         diag_tritrn             1.1    0.42             1.1    0.42
          diag_rdiag             4.0    1.53             4.0    1.53
     scf_loop_modump             5.7    2.15             5.7    2.15
      scf_loop_ortho             0.8    0.30             0.8    0.30
          Scf_a_loop             0.4    0.14             0.4    0.16
         Ridft_a_scf             0.1    0.04             0.1    0.04
         a_scf_fanal             0.1    0.03             0.1    0.03
 


    ------------------------------------------------------------------------
         total  cpu-time :  4 minutes and 26 seconds
         total wall-time :  4 minutes and 26 seconds
    ------------------------------------------------------------------------


   ****  ridft : all done  ****


    2018-02-01 18:27:45.361 

