 operating system is UNIX !
 hostname is         c-8-28.local

 ridft (c-8-28.local) : TURBOMOLE V7.0.2( ) 8 Jan 2016 at 10:54:38
 Copyright (C) 2016 TURBOMOLE GmbH, Karlsruhe


    2016-02-17 13:42:19.215 



                                  r i d f t

                        DFT program with RI approximation 
                                for coulomb part 




                                                 
                                 References:     
                                                 
          TURBOMOLE:                             
              R. Ahlrichs, M. Baer, M. Haeser, H. Horn, and
              C. Koelmel
              Electronic structure calculations on workstation
              computers: the program system TURBOMOLE
              Chem. Phys. Lett. 162: 165 (1989)
          Density Functional:                              
              O. Treutler and R. Ahlrichs                      
              Efficient Molecular Numerical Integration Schemes
              J. Chem. Phys. 102: 346 (1995)                   
          Parallel Version:                                
              Performance of parallel TURBOMOLE for Density    
              Functional Calculations                          
              M. v. Arnim and R. Ahlrichs                      
              J. Comp. Chem. 19: 1746 (1998)                   
          RI-J Method:                                     
              Auxiliary Basis Sets to approximate Coulomb      
              Potentials                                       
              Chem. Phys. Lett. 240: 283 (1995)                
              K. Eichkorn, O. Treutler, H. Oehm, M. Haeser     
              and R. Ahlrichs                                  
              Chem. Phys. Lett. 242: 652 (1995)                
                                                           
              Auxiliary Basis Sets for Main Row Atoms and their
              Use to approximate Coulomb Potentials            
              K. Eichkorn, F. Weigend, O. Treutler and         
              R. Ahlrichs                                      
              Theo. Chem. Acc. 97: 119 (1997)                   
                                                           
              Accurate Coulomb-fitting basis sets for H to Rn 
              F. Weigend                                        
              Phys. Chem. Chem. Phys. 8: 1057 (2006)            
                                                           
          Multipole accelerated RI-J (MARI-J):             
              Fast evaluation of the Coulomb potential for     
              electron densities using multipole accelerated   
              resolution of identity approximation             
              M. Sierka, A. Hogekamp and R. Ahlrichs           
              J. Chem. Phys. 118: 9136 (2003)                  
          RI-JK Method:                                     
              A fully direct RI-HF algorithm: Implementation,
              optimised auxiliary basis sets, demonstration of
              accuracy and efficiency                         
              F. Weigend                                      
              Phys. Chem. Chem. Phys. 4: 4285 (2002)           
          Two-component HF and DFT with spin-orbit coupling:  
              Self-consistent treatment of spin-orbit         
              interactions with efficient Hartree-Fock and    
              density functional methods                      
              M. K. Armbruster, F. Weigend, C. van Wüllen and 
              W. Klopper                                      
              Phys. Chem. Chem. Phys. 10: 1748 (2008)         
          Relativistic all-electron 2c calculations           
              An efficient implementation of two-component    
              relativistic exact-decoupling methods for large 
              molecules                                       
              D. Peng, N. Middendorf, F. Weigend, M. Reiher   
              J. Chem. Phys. 138, 184105 (2013)               
                                         


 


              +--------------------------------------------------+
              |      general information about current run       |
              +--------------------------------------------------+

 

 DENSITY CONVERGENCE CHECK SWITCHED ON !
 SCF CONVERGENCE IF RMS(delta[D]) <     0.1000000000E-06

 TPSS meta-GGA functional
 exchange:    LDA + TPSS
 correlation: LDA (PW) + TPSS
 A DFT calculation using the RI-J approximation will be carried out.
 Allocatable memory for RI due to $ricore (MB):        2000


              +--------------------------------------------------+
              | Atomic coordinate, charge and isotop information |
              +--------------------------------------------------+

                    atomic coordinates            atom    charge  isotop
          0.00000000    2.67618808    0.00000000    c      6.000     0
          0.00000000   -2.67618808    0.00000000    c      6.000     0
          2.33598888   -1.28360826    0.00000000    c      6.000     0
          2.33598888    1.28360826    0.00000000    c      6.000     0
         -2.33598888   -1.28360826    0.00000000    c      6.000     0
         -2.33598888    1.28360826    0.00000000    c      6.000     0
          0.00000000   -5.31498375    0.00000000    c      6.000     0
          0.00000000    5.31498375    0.00000000    c      6.000     0
          2.28826396    6.71755280    0.00000000    c      6.000     0
         -2.28826396    6.71755280    0.00000000    c      6.000     0
          2.28826396   -6.71755280    0.00000000    c      6.000     0
         -2.28826396   -6.71755280    0.00000000    c      6.000     0
         -4.17903009    7.84282142    0.00000000    n      7.000     0
          4.17903009    7.84282142    0.00000000    n      7.000     0
          4.17903009   -7.84282142    0.00000000    n      7.000     0
         -4.17903009   -7.84282142    0.00000000    n      7.000     0
          4.10398763    2.32451333    0.00000000    h      1.000     0
          4.10398763   -2.32451333    0.00000000    h      1.000     0
         -4.10398763   -2.32451333    0.00000000    h      1.000     0
         -4.10398763    2.32451333    0.00000000    h      1.000     0
 
       center of nuclear mass  :    0.00000000    0.00000000    0.00000000
       center of nuclear charge:    0.00000000    0.00000000    0.00000000

              +--------------------------------------------------+
              |               basis set information              |
              +--------------------------------------------------+

              we will work with the 1s 3p 5d 7f 9g ... basis set
              ...i.e. with spherical basis functions...

   type   atoms  prim   cont   basis
   ---------------------------------------------------------------------------
    c       12     50     30   cc-pVTZ   [4s3p2d1f|18s5p2d1f]
    n        4     50     30   cc-pVTZ   [4s3p2d1f|18s5p2d1f]
    h        4     16     14   cc-pVTZ   [3s2p1d|5s2p1d]
   ---------------------------------------------------------------------------
   total:   20    864    536
   ---------------------------------------------------------------------------

   total number of primitive shells          :   60
   total number of contracted shells         :  184
   total number of cartesian basis functions :  620
   total number of SCF-basis functions       :  536


 integral neglect threshold       :  0.54E-13
 integral storage threshold THIZE :  0.10E-04
 integral storage threshold THIME :         5

 RI-J AUXILIARY BASIS SET information:

              we will work with the 1s 3p 5d 7f 9g ... basis set
              ...i.e. with spherical basis functions...

   type   atoms  prim   cont   basis
   ---------------------------------------------------------------------------
    c       12     70     49   cc-pVTZ   [6s4p3d1f1g|12s5p4d2f1g]
    n        4     70     49   cc-pVTZ   [6s4p3d1f1g|12s5p4d2f1g]
    h        4     16     11   cc-pVTZ   [3s1p1d|5s2p1d]
   ---------------------------------------------------------------------------
   total:   20   1184    828
   ---------------------------------------------------------------------------

   total number of primitive shells          :   56
   total number of contracted shells         :  260
   total number of cartesian basis functions : 1024
   total number of SCF-basis functions       :  828


 symmetry group of the molecule :   c1 

 the group has the following generators :
   c1(z)

    1 symmetry operations found

 there are 1 real representations :   a   

 maximum number of shells which are related by symmetry :  1


    mo occupation :
   irrep   mo's   occupied
    a      536       52
 
 number of basis functions   :          536
 number of occupied orbitals :           52
 
  
           ------------------
           density functional
           ------------------
 TPSS meta-GGA functional
 exchange:    LDA + TPSS
 correlation: LDA (PW) + TPSS
 iterations will be done with small grid
  
 spherical integration : Lebedev's spherical grid
 spherical gridsize    :           5
    i.e. gridpoints    :         590
 value for diffuse not defined
 radial integration    : Chebyshev 2nd kind (scaling 3)
 radial gridsize       :           8
 integration cells     :          20
 partition function    : becke
 partition sharpness   :           3
  

 biggest AO integral is expected to be     4.229423036
  
           ------------------------
               RI-J - INFORMATION
           ------------------------
 Contributions to RI integral batches: 
  neglected integral batches:        4085
  direct contribution:                  0
  memory contribution:       12935
 Memory core needed for (P|Q) and Cholesky      6 MByte
 Memory core minimum needed except of (P|Q)     2 MByte
 Total minimum memory core needed (sum)         7 MByte
  
 ****************************************
 Memory allocated for RI-J  1093 MByte
 ****************************************
                                            

          ------------------------
          nuclear repulsion energy  :   835.026842054    
          ------------------------

 
          -----------------
          -S,T+V- integrals
          -----------------

 1e-integrals will be neglected if expon. factor < 0.539026E-14
 
   Difference densities algorithm switched on.
   The maximal number of linear combinations of
   difference densities is          20 .

 automatic virtual orbital shift switched on 
      shift if e(lumo)-e(homo) < 0.10000000    


 DIIS switched on: error vector is FDS-SDF
 Max. Iterations for DIIS is     :   4
 DIIS matrix (see manual) 
    Scaling factor of diagonals  :  1.200
    threshold for scaling factor :  0.000

 scf convergence criterion : increment of total energy < .1000000D-08
                  and increment of one-electron energy < .1000000D-05


 <geterg> : there is no data group $energy 

  MOs are in ASCII format !


 reading orbital data $scfmo  from file mos . 

 orbital characterization : expanded
 
 mo provided and orthogonalized by Cholesky decomposition

 DSCF restart information will be dumped onto file mos


 Starting SCF iterations

          Overall gridpoints after grid construction =        111712

 ITERATION  ENERGY          1e-ENERGY        2e-ENERGY     RMS[dD(SAO)]   TOL
   1  -674.88585872038    -2536.3197081     1026.4070074    0.000D+00 0.538D-13
                            Exc = -92.6782563561     Coul =  1119.08526372    
                              N = 103.99995044    
                            current damping = 0.700
 
          max. resid. norm for Fia-block=  4.504D-01 for orbital     43a         
          max. resid. fock norm         =  5.260D+00 for orbital    516a         

 ITERATION  ENERGY          1e-ENERGY        2e-ENERGY     RMS[dD(SAO)]   TOL
   2  -678.33132314573    -2559.1239826     1045.7658174    0.489D-02 0.360D-13
                            Exc = -93.3697130835     Coul =  1139.13553046    
                              N = 103.99994544    
                            current damping = 0.650
 
          Norm of current diis error:  3.3764    
          max. resid. norm for Fia-block=  1.695D-01 for orbital      3a         
          max. resid. fock norm         =  3.969D-01 for orbital    482a         

 ITERATION  ENERGY          1e-ENERGY        2e-ENERGY     RMS[dD(SAO)]   TOL
   3  -678.75536366837    -2566.2433454     1052.4611397    0.278D-02 0.277D-13
                            Exc = -94.0280514298     Coul =  1146.48919109    
                              N = 103.99995154    
                            current damping = 0.550
 
          Norm of current diis error:  1.7154    
          max. resid. norm for Fia-block=  6.876D-02 for orbital      3a         
          max. resid. fock norm         =  9.433D-02 for orbital    231a         

 ITERATION  ENERGY          1e-ENERGY        2e-ENERGY     RMS[dD(SAO)]   TOL
   4  -678.89461822264    -2569.6901841     1055.7687238    0.224D-02 0.233D-13
                            Exc = -93.9766378454     Coul =  1149.74536166    
                              N = 103.99995064    
                            current damping = 0.450
 
          Norm of current diis error: 0.85453    
          max. resid. norm for Fia-block=  3.991D-02 for orbital     20a         
          max. resid. fock norm         =  6.457D-02 for orbital    451a         

 ITERATION  ENERGY          1e-ENERGY        2e-ENERGY     RMS[dD(SAO)]   TOL
   5  -678.92353473142    -2570.0015376     1056.0511608    0.819D-03 0.218D-13
                            Exc = -94.1554830940     Coul =  1150.20664390    
                              N = 103.99995486    
                            current damping = 0.300
 
          Norm of current diis error: 0.37575    
          max. resid. norm for Fia-block=  9.042D-03 for orbital     47a         
          max. resid. fock norm         =  1.676D-02 for orbital     19a         
          irrep a   : virtual orbitals shifted by    0.01747
          mo-orthogonalization: Cholesky decomposition

 ITERATION  ENERGY          1e-ENERGY        2e-ENERGY     RMS[dD(SAO)]   TOL
   6  -678.93006570330    -2570.5136515     1056.5567437    0.471D-03 0.207D-13
                            Exc = -94.1518259108     Coul =  1150.70856961    
                              N = 103.99995585    
                            current damping = 0.200
 
          Norm of current diis error: 0.13183    
          max. resid. norm for Fia-block=  5.696D-03 for orbital     50a         
          max. resid. fock norm         =  7.020D-03 for orbital     25a         
          irrep a   : virtual orbitals shifted by    0.03311

 ITERATION  ENERGY          1e-ENERGY        2e-ENERGY     RMS[dD(SAO)]   TOL
   7  -678.93023874715    -2570.9402168     1056.9831360    0.187D-03 0.203D-13
                            Exc = -94.1533545535     Coul =  1151.13649053    
                              N = 103.99995447    
                            current damping = 0.050
 
          Norm of current diis error: 0.12304    
          max. resid. norm for Fia-block=  2.178D-03 for orbital     50a         
          max. resid. fock norm         =  4.423D-03 for orbital     21a         
          irrep a   : virtual orbitals shifted by    0.04179

 ITERATION  ENERGY          1e-ENERGY        2e-ENERGY     RMS[dD(SAO)]   TOL
   8  -678.93086236260    -2570.6680712     1056.7103667    0.630D-04 0.201D-13
                            Exc = -94.1582640842     Coul =  1150.86863082    
                              N = 103.99995550    
                            current damping = 0.100
 
          Norm of current diis error: 0.18330E-01
          max. resid. norm for Fia-block=  6.628D-04 for orbital     28a         
          max. resid. fock norm         =  8.176D-04 for orbital    530a         
          irrep a   : virtual orbitals shifted by    0.03914

 ITERATION  ENERGY          1e-ENERGY        2e-ENERGY     RMS[dD(SAO)]   TOL
   9  -678.93087272017    -2570.7000338     1056.7423190    0.149D-04 0.200D-13
                            Exc = -94.1598201498     Coul =  1150.90213919    
                              N = 103.99995555    
                            current damping = 0.150
 
          Norm of current diis error: 0.10650E-01
          max. resid. norm for Fia-block=  3.752D-04 for orbital     28a         
          max. resid. fock norm         =  5.710D-04 for orbital    530a         
          irrep a   : virtual orbitals shifted by    0.03641

 ITERATION  ENERGY          1e-ENERGY        2e-ENERGY     RMS[dD(SAO)]   TOL
  10  -678.93087638165    -2570.7040761     1056.7463577    0.707D-05 0.198D-13
                            Exc = -94.1588941027     Coul =  1150.90525181    
                              N = 103.99995549    
                            current damping = 0.050
 
          Norm of current diis error: 0.58144E-02
          max. resid. norm for Fia-block=  1.128D-04 for orbital     52a         
          max. resid. fock norm         =  1.740D-04 for orbital    529a         
          irrep a   : virtual orbitals shifted by    0.04194
          mo-orthogonalization: Cholesky decomposition

 ITERATION  ENERGY          1e-ENERGY        2e-ENERGY     RMS[dD(SAO)]   TOL
  11  -678.93087753011    -2570.6947212     1056.7370016    0.322D-05 0.197D-13
                            Exc = -94.1591827644     Coul =  1150.89618439    
                              N = 103.99995550    
                            current damping = 0.100
 
          Norm of current diis error: 0.19710E-02
          max. resid. norm for Fia-block=  3.957D-05 for orbital     47a         
          max. resid. fock norm         =  6.068D-05 for orbital    427a         
          irrep a   : virtual orbitals shifted by    0.03918

 ITERATION  ENERGY          1e-ENERGY        2e-ENERGY     RMS[dD(SAO)]   TOL
  12  -678.93087763582    -2570.6977274     1056.7400077    0.170D-05 0.194D-13
                            Exc = -94.1588430044     Coul =  1150.89885074    
                              N = 103.99995549    
                            current damping = 0.150
 
          Norm of current diis error: 0.99760E-03
          max. resid. norm for Fia-block=  2.787D-05 for orbital     50a         
          max. resid. fock norm         =  4.573D-05 for orbital     21a         
          irrep a   : virtual orbitals shifted by    0.03641

 ITERATION  ENERGY          1e-ENERGY        2e-ENERGY     RMS[dD(SAO)]   TOL
  13  -678.93087767435    -2570.6956876     1056.7379679    0.104D-05 0.194D-13
                            Exc = -94.1590086046     Coul =  1150.89697649    
                              N = 103.99995550    
                            current damping = 0.200
 
          Norm of current diis error: 0.51179E-03
          max. resid. norm for Fia-block=  1.051D-05 for orbital     34a         
          max. resid. fock norm         =  1.630D-05 for orbital     21a         
          irrep a   : virtual orbitals shifted by    0.03365

 ITERATION  ENERGY          1e-ENERGY        2e-ENERGY     RMS[dD(SAO)]   TOL
  14  -678.93087768440    -2570.6969067     1056.7391869    0.209D-06 0.192D-13
                            Exc = -94.1590242793     Coul =  1150.89821120    
                              N = 103.99995550    
                            current damping = 0.250
 
          Norm of current diis error: 0.77395E-04
          max. resid. norm for Fia-block=  2.960D-06 for orbital     32a         
          max. resid. fock norm         =  4.623D-06 for orbital     30a         
          irrep a   : virtual orbitals shifted by    0.03088

 ITERATION  ENERGY          1e-ENERGY        2e-ENERGY     RMS[dD(SAO)]   TOL
  15  -678.93087768465    -2570.6966665     1056.7389468    0.104D-06 0.191D-13
                            Exc = -94.1589972537     Coul =  1150.89794403    
                              N = 103.99995550    
                            current damping = 0.300
 
          Norm of current diis error: 0.30853E-04
          max. resid. norm for Fia-block=  1.144D-06 for orbital     32a         
          max. resid. fock norm         =  1.650D-06 for orbital     27a         
          irrep a   : virtual orbitals shifted by    0.02812
          mo-orthogonalization: Cholesky decomposition

 DENSITY CONVERGED !


 ITERATION  ENERGY          1e-ENERGY        2e-ENERGY     RMS[dD(SAO)]   TOL
  16  -678.93087768467    -2570.6967039     1056.7389842    0.147D-07 0.190D-13
                            Exc = -94.1589976354     Coul =  1150.89798183    
                              N = 103.99995550    
                            current damping = 0.350
 
          Norm of current diis error: 0.11911E-04
          max. resid. norm for Fia-block=  2.553D-07 for orbital     47a         
          max. resid. fock norm         =  4.200D-07 for orbital    357a         
          irrep a   : virtual orbitals shifted by    0.02535

 ENERGY & DENSITY CONVERGED !

          Overall gridpoints after grid construction =        344032

 ITERATION  ENERGY          1e-ENERGY        2e-ENERGY     RMS[dD(SAO)]   TOL
  17  -678.93056887701    -2570.6967034     1056.7392925    0.102D-07 0.189D-13
                            Exc = -94.1586915472     Coul =  1150.89798402    
                              N = 103.99999892    
                            current damping = 0.400
 
          Norm of current diis error: 0.26563E-05
          max. resid. norm for Fia-block=  1.110D-07 for orbital     31a         
          max. resid. fock norm         =  1.758D-07 for orbital    529a         

 End of SCF iterations

   convergence criteria satisfied after   17 iterations


                  ------------------------------------------ 
                 |  total energy      =   -678.93056887701  |
                  ------------------------------------------ 
                 :  kinetic energy    =    675.23564987648  :
                 :  potential energy  =  -1354.16621875349  :
                 :  virial theorem    =      1.99455773658  :
                 :  wavefunction norm =      1.00000000000  :
                  .......................................... 


 <geterg> : there is no data group $energy 


 <skperg> : $end is missing 


 orbitals $scfmo  will be written to file mos

    irrep                 48a         49a         50a         51a         52a   
 eigenvalues H         -0.33665    -0.33567    -0.32023    -0.30422    -0.25424
            eV          -9.1609     -9.1340     -8.7139     -8.2783     -6.9182
 occupation              2.0000      2.0000      2.0000      2.0000      2.0000 

    irrep                 53a         54a         55a         56a         57a   
 eigenvalues H         -0.19894    -0.09868    -0.09537    -0.07078    -0.06540
            eV          -5.4135     -2.6853     -2.5951     -1.9261     -1.7796
 
 
 
 
 ==============================================================================
                           electrostatic moments
 ==============================================================================

 reference point for electrostatic moments:    0.00000   0.00000   0.00000

 
              nuc           elec       ->  total
 ------------------------------------------------------------------------------
                          charge      
 ------------------------------------------------------------------------------
         104.000000    -104.000000      -0.000000
 
 ------------------------------------------------------------------------------
                       dipole moment  
 ------------------------------------------------------------------------------
   x       0.000000      -0.000000      -0.000000
   y       0.000000      -0.000000      -0.000000
   z       0.000000      -0.000000      -0.000000
 
   | dipole moment | =     0.0000 a.u. =     0.0000 debye 
 
 ------------------------------------------------------------------------------
                     quadrupole moment
 ------------------------------------------------------------------------------
  xx     813.002951    -890.947439     -77.944488
  yy    3291.377585   -3389.373187     -97.995602
  zz       0.000000     -66.149717     -66.149717
  xy       0.000000      -0.000000      -0.000000
  xz       0.000000       0.000000       0.000000
  yz       0.000000       0.000000       0.000000
 
     1/3  trace=     -80.696602
     anisotropy=      27.886594
 
 ==============================================================================
 
 


    ------------------------------------------------------------------------
         total  cpu-time :  5 minutes and 32 seconds
         total wall-time :  5 minutes and 31 seconds
    ------------------------------------------------------------------------


   ****  ridft : all done  ****


    2016-02-17 13:47:50.587 

