
   OpenMP run-time library returned nthreads = 28
 operating system is UNIX !

 dscf (c-14-42) : TURBOMOLE V7.3 ( 22142 ) 4 Jul 2018 at 18:12:42
 Copyright (C) 2018 TURBOMOLE GmbH, Karlsruhe


    2019-04-01 23:52:08.560 



                             d s c f - program

                   idea & directorship : reinhart ahlrichs
                   program development : marco haeser
                                         michael baer
                           dft version : oliver treutler


                          quantum chemistry group
                          universitaet  karlsruhe
                                  germany




                          References             
                                                 
          TURBOMOLE:                             
              R. Ahlrichs, M. Baer, M. Haeser, H. Horn, and
              C. Koelmel
              Electronic structure calculations on workstation
              computers: the program system TURBOMOLE
              Chem. Phys. Lett. 162: 165 (1989)
          Density Functional:                              
              O. Treutler and R. Ahlrichs                      
              Efficient Molecular Numerical Integration Schemes
              J. Chem. Phys. 102: 346 (1995)                   
          Parallel Version:                                
              Performance of parallel TURBOMOLE for Density    
              Functional Calculations                          
              M. v. Arnim and R. Ahlrichs                      
              J. Comp. Chem. 19: 1746 (1998)                   
                                         




              +--------------------------------------------------+
              | Atomic coordinate, charge and isotop information |
              +--------------------------------------------------+

                    atomic coordinates            atom    charge  isotop
          0.07967505    0.38029242    7.77907310    c      6.000     0
          0.13053186    2.61975675    7.22757319    o      8.000     0
          2.21994159   -1.04055042    7.97337464    n      7.000     0
          3.86578014   -0.24198897    7.46567656    h      1.000     0
          2.14635950   -2.91494457    8.22172798    h      1.000     0
         -2.35848925   -1.01609706    8.27881842    c      6.000     0
         -2.08022707   -2.83159732    9.19935006    h      1.000     0
         -3.31512064   -1.31525758    6.48204159    h      1.000     0
         -3.56402860    0.16920801    9.44151372    h      1.000     0
 
       center of nuclear mass  :    0.04808983    0.21181719    7.81006400
       center of nuclear charge:   -0.00113362    0.08514978    7.83724584

              +--------------------------------------------------+
              |               basis set information              |
              +--------------------------------------------------+

              we will work with the 1s 3p 5d 7f 9g ... basis set
              ...i.e. with spherical basis functions...

   type   atoms  prim   cont   basis
   ---------------------------------------------------------------------------
    c        2     50     30   cc-pVTZ   [4s3p2d1f|18s5p2d1f]
    o        1     50     30   cc-pVTZ   [4s3p2d1f|18s5p2d1f]
    n        1     50     30   cc-pVTZ   [4s3p2d1f|18s5p2d1f]
    h        5     16     14   cc-pVTZ   [3s2p1d|5s2p1d]
   ---------------------------------------------------------------------------
   total:    9    280    190
   ---------------------------------------------------------------------------

   total number of primitive shells          :   86
   total number of contracted shells         :   70
   total number of cartesian basis functions :  215
   total number of SCF-basis functions       :  190


 integral neglect threshold       :  0.16E-12
 integral storage threshold THIZE :  0.10E-04
 integral storage threshold THIME :         5


 DENSITY CONVERGENCE CHECK SWITCHED ON !
 SCF CONVERGENCE IF RMS(delta[D]) <     0.1000000000E-06


 symmetry group of the molecule :   c1 

 the group has the following generators :
   c1(z)

    1 symmetry operations found

 there are 1 real representations :   a   

 maximum number of shells which are related by symmetry :  1


    mo occupation :
   irrep   mo's   occupied
    a      190       16
 
 number of basis functions   :                    190
 number of occupied orbitals :                     16
 

 automatic virtual orbital shift switched on 
      shift if e(lumo)-e(homo) < 0.10000000    


          ------------------------
          nuclear repulsion energy  :   121.865979314    
          ------------------------


         -----------------
         -S,T+V- integrals
         -----------------

 1e-integrals will be neglected if expon. factor < 0.155440E-13
 
   Difference densities algorithm switched on.
   The maximal number of linear combinations of
   difference densities is                    20 .

 DIIS switched on: error vector is FDS-SDF
 Max. Iterations for DIIS is     :   5
 DIIS matrix (see manual) 
    Scaling factor of diagonals  :  1.200
    threshold for scaling factor :  0.000

 scf convergence criterion : increment of total energy < .1000000D-08
                  and increment of one-electron energy < .1000000D-05

  MOs are in ASCII format !


 reading orbital data $scfmo  from file mos
 orbital characterization : scfconv=9

 DSCF restart information will be dumped onto file mos

 
                                              current damping :  0.700
 ITERATION  ENERGY          1e-ENERGY        2e-ENERGY     RMS[dD(SAO)]   TOL
   1  -208.01441596290    -525.15037212     195.26997684    0.000D+00 0.155D-12
          max. resid. norm for Fia-block=  1.034D-01 for orbital      1a         
          max. resid. fock norm         =  1.676D-01 for orbital    189a         
          Delta Eig. =    28.7443939572 eV 
 
                                              current damping :  0.650
 ITERATION  ENERGY          1e-ENERGY        2e-ENERGY     RMS[dD(SAO)]   TOL
   2  -208.05013047394    -524.66630226     194.75019248    0.152D-02 0.987D-13
          Norm of current diis error: 0.37683    
          max. resid. norm for Fia-block=  4.667D-02 for orbital      1a         
          max. resid. fock norm         =  7.543D-02 for orbital    188a         
          Delta Eig. =    11.8960496168 eV 
 
                                              current damping :  0.600
 ITERATION  ENERGY          1e-ENERGY        2e-ENERGY     RMS[dD(SAO)]   TOL
   3  -208.05730561352    -524.72357348     194.80028855    0.704D-03 0.760D-13
          Norm of current diis error: 0.17038    
          max. resid. norm for Fia-block=  2.270D-02 for orbital      1a         
          max. resid. fock norm         =  2.534D-02 for orbital    189a         
          Delta Eig. =     5.5162185810 eV 
 
                                              current damping :  0.450
 ITERATION  ENERGY          1e-ENERGY        2e-ENERGY     RMS[dD(SAO)]   TOL
   4  -208.05903748853    -524.72842293     194.80340613    0.407D-03 0.665D-13
          Norm of current diis error: 0.72024E-01
          max. resid. norm for Fia-block=  7.990D-03 for orbital     11a         
          max. resid. fock norm         =  1.183D-02 for orbital    139a         
          Delta Eig. =     1.9014049757 eV 
 
                                              current damping :  0.500
 ITERATION  ENERGY          1e-ENERGY        2e-ENERGY     RMS[dD(SAO)]   TOL
   5  -208.05938051653    -524.70917701     194.78381718    0.168D-03 0.615D-13
          Norm of current diis error: 0.26613E-01
          max. resid. norm for Fia-block=  3.328D-03 for orbital     11a         
          max. resid. fock norm         =  3.364D-03 for orbital     11a         
 mo-orthogonalization: Cholesky decomposition
          Delta Eig. =     0.6586892187 eV 
 
                                              current damping :  0.550
 ITERATION  ENERGY          1e-ENERGY        2e-ENERGY     RMS[dD(SAO)]   TOL
   6  -208.05943254585    -524.70988086     194.78446900    0.705D-04 0.582D-13
          Norm of current diis error: 0.10988E-01
          max. resid. norm for Fia-block=  1.455D-03 for orbital     11a         
          max. resid. fock norm         =  1.484D-03 for orbital     11a         
          Delta Eig. =     0.1896962680 eV 
 
                                              current damping :  0.600
 ITERATION  ENERGY          1e-ENERGY        2e-ENERGY     RMS[dD(SAO)]   TOL
   7  -208.05944235873    -524.70904276     194.78362109    0.275D-04 0.552D-13
          Norm of current diis error: 0.49696E-02
          max. resid. norm for Fia-block=  7.018D-04 for orbital     11a         
          max. resid. fock norm         =  7.133D-04 for orbital     11a         
          Delta Eig. =     0.0690490263 eV 
 
                                              current damping :  0.450
 ITERATION  ENERGY          1e-ENERGY        2e-ENERGY     RMS[dD(SAO)]   TOL
   8  -208.05944457514    -524.70890665     194.78348276    0.127D-04 0.523D-13
          Norm of current diis error: 0.23717E-02
          max. resid. norm for Fia-block=  3.452D-04 for orbital     11a         
          max. resid. fock norm         =  3.516D-04 for orbital     11a         
          Delta Eig. =     0.0270744517 eV 
 
                                              current damping :  0.300
 ITERATION  ENERGY          1e-ENERGY        2e-ENERGY     RMS[dD(SAO)]   TOL
   9  -208.05944516898    -524.70882655     194.78340206    0.677D-05 0.490D-13
          Norm of current diis error: 0.10033E-02
          max. resid. norm for Fia-block=  1.484D-04 for orbital     11a         
          max. resid. fock norm         =  1.506D-04 for orbital     11a         
          Delta Eig. =     0.0102835382 eV 
 
                                              current damping :  0.350
 ITERATION  ENERGY          1e-ENERGY        2e-ENERGY     RMS[dD(SAO)]   TOL
  10  -208.05944529182    -524.70884053     194.78341592    0.326D-05 0.458D-13
          Norm of current diis error: 0.35585E-03
          max. resid. norm for Fia-block=  4.964D-05 for orbital     14a         
          max. resid. fock norm         =  5.120D-05 for orbital     14a         
 mo-orthogonalization: Cholesky decomposition
          Delta Eig. =     0.0017853281 eV 
 
                                              current damping :  0.400
 ITERATION  ENERGY          1e-ENERGY        2e-ENERGY     RMS[dD(SAO)]   TOL
  11  -208.05944530788    -524.70882138     194.78339675    0.106D-05 0.432D-13
          Norm of current diis error: 0.13898E-03
          max. resid. norm for Fia-block=  2.068D-05 for orbital     14a         
          max. resid. fock norm         =  2.076D-05 for orbital     14a         
          Delta Eig. =     0.0008566397 eV 
 
                                              current damping :  0.450
 ITERATION  ENERGY          1e-ENERGY        2e-ENERGY     RMS[dD(SAO)]   TOL
  12  -208.05944531027    -524.70882973     194.78340511    0.394D-06 0.413D-13
          Norm of current diis error: 0.56681E-04
          max. resid. norm for Fia-block=  9.771D-06 for orbital     16a         
          max. resid. fock norm         =  1.016D-05 for orbital     16a         
          Delta Eig. =     0.0001294203 eV 
 
                                              current damping :  0.500
 ITERATION  ENERGY          1e-ENERGY        2e-ENERGY     RMS[dD(SAO)]   TOL
  13  -208.05944531067    -524.70882516     194.78340053    0.153D-06 0.442D-13
          Norm of current diis error: 0.25641E-04
          max. resid. norm for Fia-block=  4.164D-06 for orbital     16a         
          max. resid. fock norm         =  4.207D-06 for orbital     16a         
          Delta Eig. =     0.0001161378 eV 

 ENERGY & DENSITY CONVERGED !

 
                                              current damping :  0.550
 ITERATION  ENERGY          1e-ENERGY        2e-ENERGY     RMS[dD(SAO)]   TOL
  14  -208.05944531075    -524.70882636     194.78340173    0.677D-07 0.444D-13
          max. resid. norm for Fia-block=  1.419D-06 for orbital     16a         
          max. resid. fock norm         =  1.465D-06 for orbital     16a         

 convergence criteria satisfied after    14 iterations


                  ------------------------------------------ 
                 |  total energy      =   -208.05944531075  |
                  ------------------------------------------ 
                 :  kinetic energy    =    207.77189049484  :
                 :  potential energy  =   -415.83133580559  :
                 :  virial theorem    =      1.99861791991  :
                 :  wavefunction norm =      1.00000000000  :
                  .......................................... 


 orbitals $scfmo  will be written to file mos

    irrep                 12a         13a         14a         15a         16a   
 eigenvalues H         -0.58321    -0.56160    -0.52286    -0.42198    -0.41270
            eV         -15.8701    -15.2821    -14.2278    -11.4827    -11.2302
 occupation              2.0000      2.0000      2.0000      2.0000      2.0000 

    irrep                 17a         18a         19a         20a         21a   
 eigenvalues H          0.12516     0.16901     0.17831     0.18757     0.22528
            eV           3.4058      4.5991      4.8521      5.1042      6.1303
 
 
 
 
 ==============================================================================
                           electrostatic moments
 ==============================================================================

 reference point for electrostatic moments:    0.00000   0.00000   0.00000

 
              nuc           elec       ->  total
 ------------------------------------------------------------------------------
                          charge      
 ------------------------------------------------------------------------------
          32.000000     -32.000000      -0.000000
 
 ------------------------------------------------------------------------------
                       dipole moment  
 ------------------------------------------------------------------------------
   x      -0.036276       0.231015       0.194739
   y       2.724793      -4.348052      -1.623259
   z     250.791867    -250.556279       0.235588
 
   | dipole moment | =     1.6518 a.u. =     4.1984 debye 
 
 ------------------------------------------------------------------------------
                     quadrupole moment
 ------------------------------------------------------------------------------
  xx     115.616996    -130.315982     -14.698987
  yy      87.878611    -108.185160     -20.306550
  zz    1976.362536   -1991.321629     -14.959093
  xy       3.582034      -4.283200      -0.701165
  xz      -9.751691      10.732428       0.980738
  yz       1.927096     -13.938357     -12.011261
 
     1/3  trace=     -16.654877
     anisotropy=      21.615399
 
 ==============================================================================
 


    ------------------------------------------------------------------------
         total  cpu-time :  5 minutes and  5 seconds
         total wall-time :  21.60 seconds
    ------------------------------------------------------------------------

   ****  dscf : all done  ****


    2019-04-01 23:52:30.109 

