 this is node-proc. number 0 running on node c-12-251.gp.local
 the total number of node-proc. spawned is  65

 dscfserver (c-12-251.gp.local) : TURBOMOLE V7.2 ( 21471 ) 7 Nov 2017 at 16:15:16
 Copyright (C) 2017 TURBOMOLE GmbH, Karlsruhe


    2018-02-15 16:03:04.473 

 
    0:06:32 ---- Start global counter...
    1:46:57 ---- ... finished.
 
    1:52:36 ---- Start global counter...
    3:22:32 ---- ... finished.
 
    3:28:37 ---- Start global counter...
    4:56:44 ---- ... finished.
 
    5:02:27 ---- Start global counter...
    6:23:33 ---- ... finished.
 
    6:27:59 ---- Start global counter...
    7:41:54 ---- ... finished.
 
    7:50:58 ---- Start global counter...
    8:56:55 ---- ... finished.
 
    9:02:09 ---- Start global counter...
   10:00:47 ---- ... finished.
 
   10:05:34 ---- Start global counter...
   10:59:01 ---- ... finished.
 
   11:03:43 ---- Start global counter...
   11:52:23 ---- ... finished.
 
   11:57:26 ---- Start global counter...
   12:41:50 ---- ... finished.
 
   12:50:02 ---- Start global counter...
   13:29:54 ---- ... finished.
 
   13:34:52 ---- Start global counter...
   14:10:17 ---- ... finished.
 
   14:15:58 ---- Start global counter...
   14:46:46 ---- ... finished.
 
   14:52:42 ---- Start global counter...
   15:20:27 ---- ... finished.
 
   15:25:27 ---- Start global counter...
   15:52:57 ---- ... finished.
 
   15:59:46 ---- Start global counter...
   16:26:14 ---- ... finished.
 
   16:29:33 ---- ByeBye Tag received


 ! Total wall-clock time in seconds  :    59372.9
 ! Time (sec) spent in global counter:    53543.1
 ! So-called SERIAL wall-clock time  :     5829.7

  *** Regular termination of server ***
 total turnaround time of dscfserver 59374.21 sec
 cpu elapsed by dscfserver process   53455.29 sec 

   ***  dscf server : all done  ***


    2018-02-16 08:32:38.686 

