           Doing BLAS/Lapack in the master proc. with  8 CPUs.
           SMPCPUS    set: Shared-memory Parallelization with   8 CPUs.

           SMP Parallelization Reference:
           C. van Wullen, J. Comput. Chem. 32 (2011) 1195--1201
 operating system is UNIX !

 ridft (c-18-364.gp.local) : TURBOMOLE V7.2 ( 21454 ) 4 Oct 2017 at 12:48:15
 Copyright (C) 2017 TURBOMOLE GmbH, Karlsruhe


    2018-04-29 10:37:58.008 



                                  r i d f t

                        DFT program with RI approximation 
                                for coulomb part 




                                                 
                                 References:     
                                                 
          TURBOMOLE:                             
              R. Ahlrichs, M. Baer, M. Haeser, H. Horn, and
              C. Koelmel
              Electronic structure calculations on workstation
              computers: the program system TURBOMOLE
              Chem. Phys. Lett. 162: 165 (1989)
          Density Functional:                              
              O. Treutler and R. Ahlrichs                      
              Efficient Molecular Numerical Integration Schemes
              J. Chem. Phys. 102: 346 (1995)                   
          Parallel Version:                                
              Performance of parallel TURBOMOLE for Density    
              Functional Calculations                          
              M. v. Arnim and R. Ahlrichs                      
              J. Comp. Chem. 19: 1746 (1998)                   
          RI-J Method:                                     
              Auxiliary Basis Sets to approximate Coulomb      
              Potentials                                       
              Chem. Phys. Lett. 240: 283 (1995)                
              K. Eichkorn, O. Treutler, H. Oehm, M. Haeser     
              and R. Ahlrichs                                  
              Chem. Phys. Lett. 242: 652 (1995)                
                                                           
              Auxiliary Basis Sets for Main Row Atoms and their
              Use to approximate Coulomb Potentials            
              K. Eichkorn, F. Weigend, O. Treutler and         
              R. Ahlrichs                                      
              Theo. Chem. Acc. 97: 119 (1997)                   
                                                           
              Accurate Coulomb-fitting basis sets for H to Rn 
              F. Weigend                                        
              Phys. Chem. Chem. Phys. 8: 1057 (2006)            
                                                           
          Multipole accelerated RI-J (MARI-J):             
              Fast evaluation of the Coulomb potential for     
              electron densities using multipole accelerated   
              resolution of identity approximation             
              M. Sierka, A. Hogekamp and R. Ahlrichs           
              J. Chem. Phys. 118: 9136 (2003)                  
          RI-JK Method:                                     
              A fully direct RI-HF algorithm: Implementation,
              optimised auxiliary basis sets, demonstration of
              accuracy and efficiency                         
              F. Weigend                                      
              Phys. Chem. Chem. Phys. 4: 4285 (2002)           
          Two-component HF and DFT with spin-orbit coupling:  
              Self-consistent treatment of spin-orbit         
              interactions with efficient Hartree-Fock and    
              density functional methods                      
              M. K. Armbruster, F. Weigend, C. van Wüllen and 
              W. Klopper                                      
              Phys. Chem. Chem. Phys. 10: 1748 (2008)         
          Relativistic all-electron 2c calculations           
              An efficient implementation of two-component    
              relativistic exact-decoupling methods for large 
              molecules                                       
              D. Peng, N. Middendorf, F. Weigend, M. Reiher   
              J. Chem. Phys. 138, 184105 (2013)               
                                         




              +--------------------------------------------------+
              |      general information about current run       |
              +--------------------------------------------------+

 

 DENSITY CONVERGENCE CHECK SWITCHED ON !
 SCF CONVERGENCE IF RMS(delta[D]) <     0.1000000000E-06

 TPSS meta-GGA functional
 exchange:    LDA + TPSS
 correlation: LDA (PW) + TPSS
 A DFT calculation using the RI-J approximation will be carried out.
 Allocatable memory for RI due to $ricore (MB):                  5000


              +--------------------------------------------------+
              | Atomic coordinate, charge and isotop information |
              +--------------------------------------------------+

                    atomic coordinates            atom    charge  isotop
          2.28799600    0.05418937    0.62306371    n      7.000     0
          1.15638950   -2.18915137    0.28998181    c      6.000     0
          2.36495050   -3.83524341    0.41440361    h      1.000     0
         -1.41977768   -2.47298927   -0.16787207    c      6.000     0
         -2.21176527   -4.34045397   -0.40323582    h      1.000     0
         -2.92504599   -0.32114057   -0.29567961    c      6.000     0
         -4.93409902   -0.46478701   -0.64015558    h      1.000     0
         -1.78318786    2.02320905    0.03746023    c      6.000     0
         -2.87014308    3.75016205   -0.02200402    h      1.000     0
          0.80827096    2.10913964    0.48631874    c      6.000     0
          1.74741939    3.90805141    0.75125682    h      1.000     0
         -1.34769142   -0.53658644    6.23141599    n      0.000     0
         -3.03878658   -1.35269017    5.88256596    h      0.000     0
         -1.34720975    2.10489125    6.40718131    c      0.000     0
         -3.31230398    3.29201683    6.19014602    o      0.000     0
          1.14627396    3.16140188    6.83721319    c      0.000     0
          1.33773415    5.17815950    7.01837779    h      0.000     0
          3.16804205    1.61429764    6.97236650    c      0.000     0
          5.06509850    2.31097295    7.25285200    h      0.000     0
          2.94493882   -0.95061491    6.75966901    n      0.000     0
          4.48211008   -2.06968682    6.74423441    h      0.000     0
          0.67642288   -2.17370695    6.33186960    c      0.000     0
          0.50230871   -4.45161699    6.07944135    o      0.000     0
 
       center of nuclear mass  :    0.02707001    0.05648175    3.85632629
       center of nuclear charge:   -0.35399457   -0.13591763    0.15626108

              +--------------------------------------------------+
              |               basis set information              |
              +--------------------------------------------------+

              we will work with the 1s 3p 5d 7f 9g ... basis set
              ...i.e. with spherical basis functions...

   type   atoms  prim   cont   basis
   ---------------------------------------------------------------------------
    n        3     50     30   cc-pVTZ   [4s3p2d1f|18s5p2d1f]
    c        9     50     30   cc-pVTZ   [4s3p2d1f|18s5p2d1f]
    h        9     16     14   cc-pVTZ   [3s2p1d|5s2p1d]
    o        2     50     30   cc-pVTZ   [4s3p2d1f|18s5p2d1f]
   ---------------------------------------------------------------------------
   total:   23    844    546
   ---------------------------------------------------------------------------

   total number of primitive shells          :   86
   total number of contracted shells         :  194
   total number of cartesian basis functions :  625
   total number of SCF-basis functions       :  546


 integral neglect threshold       :  0.53E-13
 integral storage threshold THIZE :  0.10E-04
 integral storage threshold THIME :         5

 RI-J AUXILIARY BASIS SET information:

              we will work with the 1s 3p 5d 7f 9g ... basis set
              ...i.e. with spherical basis functions...

   type   atoms  prim   cont   basis
   ---------------------------------------------------------------------------
    n        3     70     49   cc-pVTZ   [6s4p3d1f1g|12s5p4d2f1g]
    c        9     70     49   cc-pVTZ   [6s4p3d1f1g|12s5p4d2f1g]
    h        9     16     11   cc-pVTZ   [3s1p1d|5s2p1d]
    o        2     70     49   cc-pVTZ   [6s4p3d1f1g|12s5p4d2f1g]
   ---------------------------------------------------------------------------
   total:   23   1124    785
   ---------------------------------------------------------------------------

   total number of primitive shells          :   80
   total number of contracted shells         :  255
   total number of cartesian basis functions :  962
   total number of SCF-basis functions       :  785


 symmetry group of the molecule :   c1 

 the group has the following generators :
   c1(z)

    1 symmetry operations found

 there are 1 real representations :   a   

 maximum number of shells which are related by symmetry :  1


    mo occupation :
   irrep   mo's   occupied
    a      546       21
 
 number of basis functions   :                    546
 number of occupied orbitals :                     21
 
  
           ------------------
           density functional
           ------------------
 Dummy atoms with grid-point found.
 DFT quadrature threshold dgrenze tightened by factor 1/10.

 TPSS meta-GGA functional
 exchange:    LDA + TPSS
 correlation: LDA (PW) + TPSS
 Dummy atoms with grid-point found.
 DFT quadrature threshold dgrenze tightened by factor 1/10.

 Dummy atoms with grid-point found.
 DFT quadrature threshold dgrenze tightened by factor 1/10.


 iterations will be done with small grid
  
 spherical integration : Lebedev's spherical grid
 spherical gridsize    :                     5
    i.e. gridpoints    :                   590
 value for diffuse not defined
 radial integration    : Chebyshev 2nd kind (scaling 3)
 radial gridsize       :                     8
 integration cells     :                    23
 partition function    : becke
 partition sharpness   :                     3
  
 found dummy atom(s) with basis: included in dft

 biggest AO integral is expected to be     4.866064444
  
           ------------------------
               RI-J - INFORMATION
           ------------------------
 Contributions to RI integral batches: 
  neglected integral batches:                  2689
  direct contribution:                            0
  memory contribution:                 16226
 Memory core needed for (P|Q) and Cholesky      5 MByte
 Memory core minimum needed except of (P|Q)     2 MByte
 Total minimum memory core needed (sum)         7 MByte
  
 ****************************************
 Memory allocated for RI-J  1208 MByte
 ****************************************
                                            

          ------------------------
          nuclear repulsion energy  :   206.160400215    
          ------------------------


         -----------------
         -S,T+V- integrals
         -----------------

 1e-integrals will be neglected if expon. factor < 0.534714E-14
 Difference densities >>NOT<< switched on in parallel ridft!

 DIIS switched on: error vector is FDS-SDF
 Max. Iterations for DIIS is     :   4
 DIIS matrix (see manual) 
    Scaling factor of diagonals  :  1.200
    threshold for scaling factor :  0.000

 scf convergence criterion : increment of total energy < .1000000D-08
                  and increment of one-electron energy < .1000000D-05

  MOs are in ASCII format !


 automatic virtual orbital shift switched on 
      shift if e(lumo)-e(homo) < 0.10000000    


 reading orbital data $scfmo  from file mos
 orbital characterization : expanded
 mo provided and orthogonalized by Cholesky decomposition

 DSCF restart information will be dumped onto file mos


 Starting SCF iterations

          Overall gridpoints after grid construction =        148779

 ITERATION  ENERGY          1e-ENERGY        2e-ENERGY     RMS[dD(SAO)]   TOL
   1  -247.44683221570    -732.80340405     279.19617161    0.000D+00 0.533D-13
                            Exc = -35.1434852201     Coul =  314.339656834    
                              N = 42.000121709    
                            current damping = 0.700
 
          max. resid. norm for Fia-block=  2.817D-01 for orbital     15a         
          max. resid. fock norm         =  1.443D+01 for orbital    518a         

 ITERATION  ENERGY          1e-ENERGY        2e-ENERGY     RMS[dD(SAO)]   TOL
   2  -248.22245987961    -739.05518618     284.67232609    0.213D-02 0.533D-13
                            Exc = -35.6305722033     Coul =  320.302898290    
                              N = 42.000096472    
                            current damping = 0.650
 
          Norm of current diis error:  2.0544    
          max. resid. norm for Fia-block=  1.350D-01 for orbital      1a         
          max. resid. fock norm         =  2.172D-01 for orbital    533a         

 ITERATION  ENERGY          1e-ENERGY        2e-ENERGY     RMS[dD(SAO)]   TOL
   3  -248.36082024389    -740.72514371     286.20392325    0.115D-02 0.533D-13
                            Exc = -35.8381637607     Coul =  322.042087011    
                              N = 42.000087247    
                            current damping = 0.550
 
          Norm of current diis error:  1.0175    
          max. resid. norm for Fia-block=  5.435D-02 for orbital     21a         
          max. resid. fock norm         =  6.043D-02 for orbital      7a         

 ITERATION  ENERGY          1e-ENERGY        2e-ENERGY     RMS[dD(SAO)]   TOL
   4  -248.40535597976    -741.41192763     286.84617143    0.780D-03 0.533D-13
                            Exc = -35.9070164885     Coul =  322.753187922    
                              N = 42.000083732    
                            current damping = 0.450
 
          Norm of current diis error: 0.40278    
          max. resid. norm for Fia-block=  2.723D-02 for orbital      7a         
          max. resid. fock norm         =  4.539D-02 for orbital    533a         

 ITERATION  ENERGY          1e-ENERGY        2e-ENERGY     RMS[dD(SAO)]   TOL
   5  -248.41128635948    -742.11370617     287.54201960    0.345D-03 0.533D-13
                            Exc = -35.9836059837     Coul =  323.525625579    
                              N = 42.000083031    
                            current damping = 0.350
 
          Norm of current diis error: 0.23051    
          max. resid. norm for Fia-block=  1.345D-02 for orbital     21a         
          max. resid. fock norm         =  1.439D-02 for orbital     21a         
          mo-orthogonalization: Cholesky decomposition

 ITERATION  ENERGY          1e-ENERGY        2e-ENERGY     RMS[dD(SAO)]   TOL
   6  -248.41362281087    -741.98890429     287.41488127    0.279D-03 0.533D-13
                            Exc = -35.9745842569     Coul =  323.389465524    
                              N = 42.000082307    
                            current damping = 0.400
 
          Norm of current diis error: 0.10202    
          max. resid. norm for Fia-block=  3.239D-03 for orbital     19a         
          max. resid. fock norm         =  7.151D-03 for orbital    534a         

 ITERATION  ENERGY          1e-ENERGY        2e-ENERGY     RMS[dD(SAO)]   TOL
   7  -248.41402726840    -742.04009215     287.46566467    0.596D-04 0.533D-13
                            Exc = -35.9804340456     Coul =  323.446098711    
                              N = 42.000082676    
                            current damping = 0.450
 
          Norm of current diis error: 0.32335E-01
          max. resid. norm for Fia-block=  1.476D-03 for orbital     13a         
          max. resid. fock norm         =  2.258D-03 for orbital    534a         

 ITERATION  ENERGY          1e-ENERGY        2e-ENERGY     RMS[dD(SAO)]   TOL
   8  -248.41406278509    -742.07915710     287.50469410    0.190D-04 0.533D-13
                            Exc = -35.9842572956     Coul =  323.488951397    
                              N = 42.000082537    
                            current damping = 0.300
 
          Norm of current diis error: 0.11493E-01
          max. resid. norm for Fia-block=  3.556D-04 for orbital     17a         
          max. resid. fock norm         =  5.718D-04 for orbital    534a         

 ITERATION  ENERGY          1e-ENERGY        2e-ENERGY     RMS[dD(SAO)]   TOL
   9  -248.41406821726    -742.08171889     287.50725046    0.725D-05 0.533D-13
                            Exc = -35.9843688452     Coul =  323.491619302    
                              N = 42.000082546    
                            current damping = 0.150
 
          Norm of current diis error: 0.19115E-02
          max. resid. norm for Fia-block=  1.040D-04 for orbital     20a         
          max. resid. fock norm         =  1.733D-04 for orbital    197a         

 ITERATION  ENERGY          1e-ENERGY        2e-ENERGY     RMS[dD(SAO)]   TOL
  10  -248.41406825583    -742.07395889     287.49949042    0.258D-05 0.533D-13
                            Exc = -35.9839126593     Coul =  323.483403077    
                              N = 42.000082562    
                            current damping = 0.200
 
          Norm of current diis error: 0.16969E-02
          max. resid. norm for Fia-block=  5.661D-05 for orbital     20a         
          max. resid. fock norm         =  7.435D-05 for orbital     11a         
          mo-orthogonalization: Cholesky decomposition

 ITERATION  ENERGY          1e-ENERGY        2e-ENERGY     RMS[dD(SAO)]   TOL
  11  -248.41406835238    -742.07698644     287.50251787    0.103D-05 0.533D-13
                            Exc = -35.9841027131     Coul =  323.486620585    
                              N = 42.000082562    
                            current damping = 0.250
 
          Norm of current diis error: 0.64953E-03
          max. resid. norm for Fia-block=  2.709D-05 for orbital     19a         
          max. resid. fock norm         =  4.398D-05 for orbital    533a         

 ITERATION  ENERGY          1e-ENERGY        2e-ENERGY     RMS[dD(SAO)]   TOL
  12  -248.41406836465    -742.07743104     287.50296246    0.531D-06 0.533D-13
                            Exc = -35.9841173216     Coul =  323.487079785    
                              N = 42.000082556    
                            current damping = 0.100
 
          Norm of current diis error: 0.36409E-03
          max. resid. norm for Fia-block=  1.302D-05 for orbital     19a         
          max. resid. fock norm         =  1.968D-05 for orbital    533a         

 ITERATION  ENERGY          1e-ENERGY        2e-ENERGY     RMS[dD(SAO)]   TOL
  13  -248.41406836941    -742.07770396     287.50323537    0.254D-06 0.533D-13
                            Exc = -35.9841482802     Coul =  323.487383654    
                              N = 42.000082557    
                            current damping = 0.050
 
          Norm of current diis error: 0.13838E-03
          max. resid. norm for Fia-block=  5.634D-06 for orbital     19a         
          max. resid. fock norm         =  7.537D-06 for orbital    533a         

 ITERATION  ENERGY          1e-ENERGY        2e-ENERGY     RMS[dD(SAO)]   TOL
  14  -248.41406837002    -742.07737257     287.50290398    0.123D-06 0.533D-13
                            Exc = -35.9841201410     Coul =  323.487024122    
                              N = 42.000082558    
                            current damping = 0.100
 
          Norm of current diis error: 0.70749E-04
          max. resid. norm for Fia-block=  2.035D-06 for orbital     13a         
          max. resid. fock norm         =  2.775D-06 for orbital    535a         

 DENSITY CONVERGED !


 ITERATION  ENERGY          1e-ENERGY        2e-ENERGY     RMS[dD(SAO)]   TOL
  15  -248.41406837021    -742.07744963     287.50298104    0.400D-07 0.533D-13
                            Exc = -35.9841271608     Coul =  323.487108200    
                              N = 42.000082558    
                            current damping = 0.150
 
          Norm of current diis error: 0.17623E-04
          max. resid. norm for Fia-block=  8.556D-07 for orbital     20a         
          max. resid. fock norm         =  1.211D-06 for orbital    535a         
          mo-orthogonalization: Cholesky decomposition

 DENSITY CONVERGED !


 ITERATION  ENERGY          1e-ENERGY        2e-ENERGY     RMS[dD(SAO)]   TOL
  16  -248.41406837022    -742.07748700     287.50301841    0.142D-07 0.533D-13
                            Exc = -35.9841292894     Coul =  323.487147703    
                              N = 42.000082558    
                            current damping = 0.050
 
          Norm of current diis error: 0.12305E-04
          max. resid. norm for Fia-block=  3.491D-07 for orbital     20a         
          max. resid. fock norm         =  5.250D-07 for orbital    535a         

 ENERGY & DENSITY CONVERGED !

          Overall gridpoints after grid construction =        369651

 ITERATION  ENERGY          1e-ENERGY        2e-ENERGY     RMS[dD(SAO)]   TOL
  17  -248.41391504458    -742.07747114     287.50315588    0.721D-08 0.533D-13
                            Exc = -35.9839751801     Coul =  323.487131059    
                              N = 42.000003674    
                            current damping = 0.100
 
          Norm of current diis error: 0.44519E-05
          max. resid. norm for Fia-block=  1.428D-07 for orbital     20a         
          max. resid. fock norm         =  2.342D-07 for orbital    535a         

 End of SCF iterations

   convergence criteria satisfied after    17 iterations


                  ------------------------------------------ 
                 |  total energy      =   -248.41391504458  |
                  ------------------------------------------ 
                 :  kinetic energy    =    247.02256034381  :
                 :  potential energy  =   -495.43647538838  :
                 :  virial theorem    =      1.99439904685  :
                 :  wavefunction norm =      1.00000000000  :
                  .......................................... 


 <geterg> : there is no data group $energy 


 <skperg> : $end is missing 


 orbitals $scfmo  will be written to file mos

    irrep                 17a         18a         19a         20a         21a   
 eigenvalues H         -0.36418    -0.32770    -0.26554    -0.24338    -0.21981
            eV          -9.9099     -8.9173     -7.2259     -6.6226     -5.9815
 occupation              2.0000      2.0000      2.0000      2.0000      2.0000 

    irrep                 22a         23a         24a         25a         26a   
 eigenvalues H         -0.05976    -0.04526     0.02166     0.04862     0.05318
            eV          -1.6262     -1.2317      0.5895      1.3230      1.4472
 
 
 
 
 ==============================================================================
                           electrostatic moments
 ==============================================================================

 reference point for electrostatic moments:    0.00000   0.00000   0.00000

 
              nuc           elec       ->  total
 ------------------------------------------------------------------------------
                          charge      
 ------------------------------------------------------------------------------
          42.000000     -42.000000      -0.000000
 
 ------------------------------------------------------------------------------
                       dipole moment  
 ------------------------------------------------------------------------------
   x     -14.867772      14.031748      -0.836024
   y      -5.708540       5.646974      -0.061567
   z       6.562966      -6.726849      -0.163883
 
   | dipole moment | =     0.8542 a.u. =     2.1711 debye 
 
 ------------------------------------------------------------------------------
                     quadrupole moment
 ------------------------------------------------------------------------------
  xx     177.217667    -203.543738     -26.326072
  yy     180.440011    -202.440415     -22.000404
  zz       6.652095     -34.508865     -27.856770
  xy      -0.147819      -0.131268      -0.279087
  xz      26.974353     -26.989805      -0.015452
  yz       9.408942      -9.137915       0.271027
 
     1/3  trace=     -25.394415
     anisotropy=       5.303818
 
 ==============================================================================
 


    ------------------------------------------------------------------------
         total  cpu-time : 10 minutes and 40 seconds
         total wall-time :  1 minutes and 28 seconds
    ------------------------------------------------------------------------

   ****  ridft : all done  ****


    2018-04-29 10:39:25.751 

