Using Slurm to start processes with PMI2
STARTING ridft ON 8 PROCESSORS!
RUNNING PROGRAM /beegfs/modfac/apps/TURBOMOLE/7.0_intel_GA/bin/em64t-unknown-linux-gnu_mpi/ridft_mpi.
PLEASE WAIT UNTIL ridft HAS FINISHED.
Look for the output in slave1.output.
  this is node-proc. number 1 running on node c-7-14.local
  the total number of node-proc. spawned is            8
  parallel platform: MPP, or cluster with fast interconnect

 ridft (c-7-14.local) : TURBOMOLE V7.0.2( ) 15 Jan 2016 at 17:47:42
 Copyright (C) 2016 TURBOMOLE GmbH, Karlsruhe


    2016-06-15 16:17:16.761 



                                  r i d f t

                        DFT program with RI approximation 
                                for coulomb part 




                                                 
                                 References:     
                                                 
          TURBOMOLE:                             
              R. Ahlrichs, M. Baer, M. Haeser, H. Horn, and
              C. Koelmel
              Electronic structure calculations on workstation
              computers: the program system TURBOMOLE
              Chem. Phys. Lett. 162: 165 (1989)
          Density Functional:                              
              O. Treutler and R. Ahlrichs                      
              Efficient Molecular Numerical Integration Schemes
              J. Chem. Phys. 102: 346 (1995)                   
          Parallel Version:                                
              Performance of parallel TURBOMOLE for Density    
              Functional Calculations                          
              M. v. Arnim and R. Ahlrichs                      
              J. Comp. Chem. 19: 1746 (1998)                   
          RI-J Method:                                     
              Auxiliary Basis Sets to approximate Coulomb      
              Potentials                                       
              Chem. Phys. Lett. 240: 283 (1995)                
              K. Eichkorn, O. Treutler, H. Oehm, M. Haeser     
              and R. Ahlrichs                                  
              Chem. Phys. Lett. 242: 652 (1995)                
                                                           
              Auxiliary Basis Sets for Main Row Atoms and their
              Use to approximate Coulomb Potentials            
              K. Eichkorn, F. Weigend, O. Treutler and         
              R. Ahlrichs                                      
              Theo. Chem. Acc. 97: 119 (1997)                   
                                                           
              Accurate Coulomb-fitting basis sets for H to Rn 
              F. Weigend                                        
              Phys. Chem. Chem. Phys. 8: 1057 (2006)            
                                                           
          Multipole accelerated RI-J (MARI-J):             
              Fast evaluation of the Coulomb potential for     
              electron densities using multipole accelerated   
              resolution of identity approximation             
              M. Sierka, A. Hogekamp and R. Ahlrichs           
              J. Chem. Phys. 118: 9136 (2003)                  
          RI-JK Method:                                     
              A fully direct RI-HF algorithm: Implementation,
              optimised auxiliary basis sets, demonstration of
              accuracy and efficiency                         
              F. Weigend                                      
              Phys. Chem. Chem. Phys. 4: 4285 (2002)           
          Two-component HF and DFT with spin-orbit coupling:  
              Self-consistent treatment of spin-orbit         
              interactions with efficient Hartree-Fock and    
              density functional methods                      
              M. K. Armbruster, F. Weigend, C. van Wüllen and 
              W. Klopper                                      
              Phys. Chem. Chem. Phys. 10: 1748 (2008)         
          Relativistic all-electron 2c calculations           
              An efficient implementation of two-component    
              relativistic exact-decoupling methods for large 
              molecules                                       
              D. Peng, N. Middendorf, F. Weigend, M. Reiher   
              J. Chem. Phys. 138, 184105 (2013)               
                                         


 


              +--------------------------------------------------+
              |      general information about current run       |
              +--------------------------------------------------+

 

 SCF run will be profiled !


 DENSITY CONVERGENCE CHECK SWITCHED ON !
 SCF CONVERGENCE IF RMS(delta[D]) <     0.1000000000E-06

 TPSS meta-GGA functional
 exchange:    LDA + TPSS
 correlation: LDA (PW) + TPSS
 A DFT calculation using the RI-J approximation will be carried out.
 Allocatable memory for RI due to $ricore (MB):        5000


              +--------------------------------------------------+
              | Atomic coordinate, charge and isotop information |
              +--------------------------------------------------+

                    atomic coordinates            atom    charge  isotop
         -1.46652197   -0.15990863    9.49727222    c      6.000     0
          1.49517021   -0.17859802    9.46303038    c      6.000     0
          2.10343526   -2.56929055    8.29797642    n      7.000     0
         -0.02575697   -3.98499778    7.67166449    c      6.000     0
         -2.12694345   -2.49833133    8.25305763    n      7.000     0
         -2.08986703    2.13688341    8.13632925    n      7.000     0
          0.01808468    3.41424379    7.24466197    c      6.000     0
          2.12197347    2.06505492    8.00474762    n      7.000     0
         -0.00054802    5.39703894    6.06078635    o      8.000     0
         -0.05890276   -6.12080405    6.85004936    o      8.000     0
          4.65269471    3.08945656    7.77174439    c      6.000     0
          4.62359293   -3.63190245    8.10119924    c      6.000     0
         -9.08417808   -0.17132257    3.51222609    c      6.000     0
         -7.57789628   -0.15718742    6.06551066    c      6.000     0
         -6.13004481   -2.46361706    5.96499613    n      7.000     0
         -6.61475956   -3.88882961    3.80252582    c      6.000     0
         -8.26025749   -2.47106258    2.30535250    n      7.000     0
         -8.29030413    2.17314726    2.30712884    n      7.000     0
         -6.57052107    3.51260404    3.73294611    c      6.000     0
         -6.13244476    2.18119749    5.92087102    n      7.000     0
         -5.64803236    5.57045911    3.17409740    o      8.000     0
         -5.82026200   -5.98396898    3.34266097    o      8.000     0
         -4.58936999    3.20584480    7.94284019    c      6.000     0
         -4.66269136   -3.49843109    8.03991542    c      6.000     0
          9.11566092   -0.49316183   -3.51591106    c      6.000     0
          7.58197809   -0.37548858   -6.04922122    c      6.000     0
          6.12252370   -2.67912143   -6.02093202    n      7.000     0
          6.48795894   -4.10335132   -3.83580390    c      6.000     0
          8.12931836   -2.73551086   -2.29860618    n      7.000     0
          8.53536382    1.89902359   -2.31175867    n      7.000     0
          6.81815078    3.33984528   -3.66536950    c      6.000     0
          6.15755922    1.95892790   -5.79673491    n      7.000     0
          6.06352645    5.44728676   -3.12781800    o      8.000     0
          5.60048685   -6.16772595   -3.39169936    o      8.000     0
          4.65269471    3.08945656   -7.77174439    c      6.000     0
          4.62359293   -3.63190245   -8.10119924    c      6.000     0
          7.58197809   -0.37548858    6.04922122    c      6.000     0
          9.11566092   -0.49316183    3.51591106    c      6.000     0
          8.12931836   -2.73551086    2.29860618    n      7.000     0
          6.48795894   -4.10335132    3.83580390    c      6.000     0
          6.12252370   -2.67912143    6.02093202    n      7.000     0
          6.15755922    1.95892790    5.79673491    n      7.000     0
          6.81815078    3.33984528    3.66536950    c      6.000     0
          8.53536382    1.89902359    2.31175867    n      7.000     0
          6.06352645    5.44728676    3.12781800    o      8.000     0
          5.60048685   -6.16772595    3.39169936    o      8.000     0
          9.66840581    2.82997827    0.00000000    c      6.000     0
          9.13162911   -3.83119297    0.00000000    c      6.000     0
         -7.57789628   -0.15718742   -6.06551066    c      6.000     0
         -9.08417808   -0.17132257   -3.51222609    c      6.000     0
         -8.26025749   -2.47106258   -2.30535250    n      7.000     0
         -6.61475956   -3.88882961   -3.80252582    c      6.000     0
         -6.13004481   -2.46361706   -5.96499613    n      7.000     0
         -6.13244476    2.18119749   -5.92087102    n      7.000     0
         -6.57052107    3.51260404   -3.73294611    c      6.000     0
         -8.29030413    2.17314726   -2.30712884    n      7.000     0
         -5.64803236    5.57045911   -3.17409740    o      8.000     0
         -5.82026200   -5.98396898   -3.34266097    o      8.000     0
         -9.35011924    3.19163405    0.00000000    c      6.000     0
         -9.31376091   -3.50842774    0.00000000    c      6.000     0
          1.49517021   -0.17859802   -9.46303038    c      6.000     0
         -1.46652197   -0.15990863   -9.49727222    c      6.000     0
         -2.12694345   -2.49833133   -8.25305763    n      7.000     0
         -0.02575697   -3.98499778   -7.67166449    c      6.000     0
          2.10343526   -2.56929055   -8.29797642    n      7.000     0
          2.12197347    2.06505492   -8.00474762    n      7.000     0
          0.01808468    3.41424379   -7.24466197    c      6.000     0
         -2.08986703    2.13688341   -8.13632925    n      7.000     0
         -0.00054802    5.39703894   -6.06078635    o      8.000     0
         -0.05890276   -6.12080405   -6.85004936    o      8.000     0
         -4.58936999    3.20584480   -7.94284019    c      6.000     0
         -4.66269136   -3.49843109   -8.03991542    c      6.000     0
         -2.27540034   -0.09046119   11.40835225    h      1.000     0
          2.34751229   -0.04926516   11.35175496    h      1.000     0
          5.62187855    2.86968141    9.59370494    h      1.000     0
          4.45801513    5.08933483    7.29296337    h      1.000     0
          5.64202303   -3.29632488    9.87648356    h      1.000     0
          4.37509394   -5.65731092    7.77569391    h      1.000     0
        -11.14452759   -0.16293219    3.76225576    h      1.000     0
         -8.79361379   -0.12209521    7.74712125    h      1.000     0
         -4.36324536    5.21976373    7.54975826    h      1.000     0
         -5.58217541    2.92535275    9.74042328    h      1.000     0
         -4.46555513   -5.52281911    7.67215582    h      1.000     0
         -5.68650719   -3.17496667    9.81550210    h      1.000     0
         11.16584370   -0.66185768   -3.79816055    h      1.000     0
          8.78410847   -0.29829327   -7.74084736    h      1.000     0
          5.62187855    2.86968141   -9.59370494    h      1.000     0
          4.45801513    5.08933483   -7.29296337    h      1.000     0
          5.64202303   -3.29632488   -9.87648356    h      1.000     0
          4.37509394   -5.65731092   -7.77569391    h      1.000     0
          8.78410847   -0.29829327    7.74084736    h      1.000     0
         11.16584370   -0.66185768    3.79816055    h      1.000     0
          9.41087394    4.87880044    0.00000000    h      1.000     0
         11.68342079    2.34900517    0.00000000    h      1.000     0
          8.57412210   -5.82166040    0.00000000    h      1.000     0
         11.19993436   -3.65263274    0.00000000    h      1.000     0
         -8.79361379   -0.12209521   -7.74712125    h      1.000     0
        -11.14452759   -0.16293219   -3.76225576    h      1.000     0
        -11.39499189    2.85599980    0.00000000    h      1.000     0
         -8.95318227    5.21726929    0.00000000    h      1.000     0
        -11.36931051   -3.22642391    0.00000000    h      1.000     0
         -8.85580468   -5.52406633    0.00000000    h      1.000     0
          2.34751229   -0.04926516  -11.35175496    h      1.000     0
         -2.27540034   -0.09046119  -11.40835225    h      1.000     0
         -4.36324536    5.21976373   -7.54975826    h      1.000     0
         -5.58217541    2.92535275   -9.74042328    h      1.000     0
         -4.46555513   -5.52281911   -7.67215582    h      1.000     0
         -5.68650719   -3.17496667   -9.81550210    h      1.000     0
         -0.66782922    1.57591821    0.00000000    c      6.000     0
          0.56754145    4.17423495    0.00000000    c      6.000     0
          1.31660999   -0.54063175    0.00000000    c      6.000     0
          0.12929506   -3.17817920    0.00000000    c      6.000     0
         -1.40340511    6.24357955    0.00000000    n      7.000     0
         -2.58212179    6.12095523   -1.56679083    h      1.000     0
         -2.58212179    6.12095523    1.56679083    h      1.000     0
         -1.88439711    1.36939004   -1.66855259    h      1.000     0
         -1.88439711    1.36939004    1.66855259    h      1.000     0
          2.53748646   -0.31331659   -1.66122045    h      1.000     0
          2.53748646   -0.31331659    1.66122045    h      1.000     0
         -0.54907883    7.97687416    0.00000000    h      1.000     0
          1.72360031    4.48401776   -1.67596031    h      1.000     0
          1.72360031    4.48401776    1.67596031    h      1.000     0
          1.57434974   -4.65161757    0.00000000    h      1.000     0
         -1.05558212   -3.46651362    1.67068798    h      1.000     0
         -1.05558212   -3.46651362   -1.67068798    h      1.000     0
 
       center of nuclear mass  :    0.00955333   -0.12564713   -0.00000000
       center of nuclear charge:    0.00822149   -0.11059776    0.00000000

              +--------------------------------------------------+
              |               basis set information              |
              +--------------------------------------------------+

              we will work with the 1s 3p 5d 7f 9g ... basis set
              ...i.e. with spherical basis functions...

   type   atoms  prim   cont   basis
   ---------------------------------------------------------------------------
    c       40     77     57   def2-QZVP   [7s4p3d2f1g|15s8p3d2f1g]
    n       25     77     57   def2-QZVP   [7s4p3d2f1g|15s8p3d2f1g]
    o       12     77     57   def2-QZVP   [7s4p3d2f1g|15s8p3d2f1g]
    h       48     33     30   def2-QZVP   [4s3p2d1f|7s3p2d1f]
   ---------------------------------------------------------------------------
   total:  125   7513   5829
   ---------------------------------------------------------------------------

   total number of primitive shells          :  100
   total number of contracted shells         : 1789
   total number of cartesian basis functions : 7224
   total number of SCF-basis functions       : 5829


 integral neglect threshold       :  0.46E-14
 integral storage threshold THIZE :  0.10E-04
 integral storage threshold THIME :         5

 RI-J AUXILIARY BASIS SET information:

              we will work with the 1s 3p 5d 7f 9g ... basis set
              ...i.e. with spherical basis functions...

   type   atoms  prim   cont   basis
   ---------------------------------------------------------------------------
    c       40     70     49   def2-QZVP   [6s4p3d1f1g|12s5p4d2f1g]
    n       25     70     49   def2-QZVP   [6s4p3d1f1g|12s5p4d2f1g]
    o       12     70     49   def2-QZVP   [6s4p3d1f1g|12s5p4d2f1g]
    h       48     16     11   def2-QZVP   [3s1p1d|5s2p1d]
   ---------------------------------------------------------------------------
   total:  125   6158   4301
   ---------------------------------------------------------------------------

   total number of primitive shells          :   80
   total number of contracted shells         : 1395
   total number of cartesian basis functions : 5273
   total number of SCF-basis functions       : 4301


 symmetry group of the molecule :   c1 

 the group has the following generators :
   c1(z)

    1 symmetry operations found

 there are 1 real representations :   a   

 maximum number of shells which are related by symmetry :  1


    mo occupation :
   irrep   mo's   occupied
    a     5829      279
 
 number of basis functions   :         5829
 number of occupied orbitals :          279
 
  
           ------------------
           density functional
           ------------------
 TPSS meta-GGA functional
 exchange:    LDA + TPSS
 correlation: LDA (PW) + TPSS
 grinp -> nfun, dfgga, dfhybrid 
           5 F F
 iterations will be done with small grid
  
 spherical integration : Lebedev's spherical grid
 spherical gridsize    :           5
    i.e. gridpoints    :         590
 value for diffuse not defined
 radial integration    : Chebyshev 2nd kind (scaling 3)
 radial gridsize       :           8
 integration cells     :         125
 partition function    : becke
 partition sharpness   :           3
  

 <rddim> : input of entry tasksize
           from data group '$pardft' failed !

               Default values taken

 <rddim> : input of entry memdiv
           from data group '$pardft' failed !

               Default values taken
  RIDFT: memory allocation for DFT gridpoints
  MEMORY is divided by 1 as DEFAULT
 Each node can hold at most  the            1 -th part
 of the gridpoints    

 biggest AO integral is expected to be     6.990327543
  
           ------------------------
               RI-J - INFORMATION
           ------------------------
 
 
 **************************************************
 *      MEMORY ALLOCATION FOR PARALLEL RI-DFT     *
 **************************************************
 
 
MEMORY FOR (MU NU/ ALPHA), SEQUENTIAL RUN               4844 MByte
 
            DIFFERENCE IN MEMORY NEED:       DIAG./SLAVE  
 
      TOTAL DIFFERENCE :                   1535 MByte
 
      difference in xcore:                  157 MByte
      difference in fatmat:                 462 MByte
      getcor calls skipped by slaves:       917 MByte
 
 
           Integral memory available for diagonal.      4844 MByte
 
           Integral memory available for slave             0 MByte
 
         MEMORY FOR (MU NU/ ALPHA) ON DIAGONALIZER      4844 MByte
 
         MEMORY FOR (MU NU/ ALPHA) ON ONE SLAVE            0 MByte
 
         TOTAL MEMORY FOR (MU NU/ ALPHA),ALL NODES      4844 MByte
 
 Contributions to RI integral batches: 
  neglected integral batches:     1027516
  direct contribution:             542038
  memory contribution:       31601
 Memory core needed for (P|Q) and Cholesky    142 MByte
 Memory core minimum needed except of (P|Q)    17 MByte
 Total minimum memory core needed (sum)       158 MByte
     number of direct tasks:         160
  
 ****************************************
 Memory allocated for RI-J  5001 MByte
 ****************************************
                                            

          ------------------------
          nuclear repulsion energy  :   15959.5231767    
          ------------------------

 
          -----------------
          -S integrals
          -----------------

 1e-integrals will be neglected if expon. factor < 0.462619E-15
 
          -----------------
          -T+V integrals
          -----------------

 1e-integrals will be neglected if expon. factor < 0.462619E-15
 Difference densities >>NOT<< switched on in parallel ridft!

 automatic virtual orbital shift switched on 
      shift if e(lumo)-e(homo) < 0.10000000    


 DIIS switched on: error vector is FDS-SDF
 Max. Iterations for DIIS is     :   4
 DIIS matrix (see manual) 
    Scaling factor of diagonals  :  1.200
    threshold for scaling factor :  0.000

 scf convergence criterion : increment of total energy < .1000000D-08
                  and increment of one-electron energy < .1000000D-05


 <geterg> : there is no data group $energy 

  MOs are in ASCII format !


 reading orbital data $scfmo  from file mos . 

 orbital characterization : expanded
 
 mo provided and orthogonalized by Cholesky decomposition

 DSCF restart information will be dumped onto file mos


 Starting SCF iterations


 ITERATION  ENERGY          1e-ENERGY        2e-ENERGY     RMS[dD(SAO)]   TOL
   1  -3811.3042446807    -36879.527621     17108.700200    0.000D+00 0.461D-14
                            Exc = -509.026612851     Coul =  17617.7268127    
                              N = 558.00185312    
                            current damping = 0.700
 
          max. resid. norm for Fia-block=  8.144D-01 for orbital     89a         
          max. resid. fock norm         =  5.248D+01 for orbital   4903a         

 ITERATION  ENERGY          1e-ENERGY        2e-ENERGY     RMS[dD(SAO)]   TOL
   2  -3824.4345135663    -36962.131220     17178.173530    0.393D-02 0.461D-14
                            Exc = -510.201375652     Coul =  17688.3749055    
                              N = 558.00159413    
                            current damping = 0.650
 
          Norm of current diis error:  10.692    
          max. resid. norm for Fia-block=  1.695D-01 for orbital      7a         
          max. resid. fock norm         =  3.171D-01 for orbital   5424a         

 ITERATION  ENERGY          1e-ENERGY        2e-ENERGY     RMS[dD(SAO)]   TOL
   3  -3826.2885187692    -36983.573793     17197.762098    0.155D-02 0.461D-14
                            Exc = -512.725016311     Coul =  17710.4871138    
                              N = 558.00148363    
                            current damping = 0.550
 
          Norm of current diis error:  5.1881    
          max. resid. norm for Fia-block=  6.506D-02 for orbital      7a         
          max. resid. fock norm         =  7.135D-02 for orbital   3077a         

 ITERATION  ENERGY          1e-ENERGY        2e-ENERGY     RMS[dD(SAO)]   TOL
   4  -3826.8662111359    -36997.763325     17211.373937    0.705D-03 0.461D-14
                            Exc = -512.425705992     Coul =  17723.7996434    
                              N = 558.00144745    
                            current damping = 0.450
 
          Norm of current diis error:  2.3509    
          max. resid. norm for Fia-block=  3.636D-02 for orbital     95a         
          max. resid. fock norm         =  8.902D-02 for orbital   5523a         

 ITERATION  ENERGY          1e-ENERGY        2e-ENERGY     RMS[dD(SAO)]   TOL
   5  -3826.9420362844    -36993.585977     17207.120764    0.364D-03 0.461D-14
                            Exc = -513.230616276     Coul =  17720.3513800    
                              N = 558.00145431    
                            current damping = 0.500
 
          Norm of current diis error:  1.6823    
          max. resid. norm for Fia-block=  1.480D-02 for orbital    267a         
          max. resid. fock norm         =  1.820D-02 for orbital    263a         
          mo-orthogonalization: Cholesky decomposition

 ITERATION  ENERGY          1e-ENERGY        2e-ENERGY     RMS[dD(SAO)]   TOL
   6  -3827.0154707603    -37000.448375     17213.909728    0.147D-03 0.461D-14
                            Exc = -513.250060219     Coul =  17727.1597881    
                              N = 558.00146414    
                            current damping = 0.550
 
          Norm of current diis error: 0.31325    
          max. resid. norm for Fia-block=  4.255D-03 for orbital    242a         
          max. resid. fock norm         =  6.117D-03 for orbital   5749a         

 ITERATION  ENERGY          1e-ENERGY        2e-ENERGY     RMS[dD(SAO)]   TOL
   7  -3827.0176504492    -36999.684558     17213.143731    0.578D-04 0.461D-14
                            Exc = -513.152438857     Coul =  17726.2961701    
                              N = 558.00146433    
                            current damping = 0.600
 
          Norm of current diis error: 0.14627    
          max. resid. norm for Fia-block=  1.787D-03 for orbital     79a         
          max. resid. fock norm         =  3.714D-03 for orbital   5749a         

 ITERATION  ENERGY          1e-ENERGY        2e-ENERGY     RMS[dD(SAO)]   TOL
   8  -3827.0180909853    -36999.866946     17213.325678    0.185D-04 0.461D-14
                            Exc = -513.173615035     Coul =  17726.4992932    
                              N = 558.00146702    
                            current damping = 0.650
 
          Norm of current diis error: 0.52275E-01
          max. resid. norm for Fia-block=  1.142D-03 for orbital    246a         
          max. resid. fock norm         =  3.603D-03 for orbital   5749a         

 ITERATION  ENERGY          1e-ENERGY        2e-ENERGY     RMS[dD(SAO)]   TOL
   9  -3827.0181015995    -37000.018919     17213.477640    0.672D-05 0.461D-14
                            Exc = -513.199076640     Coul =  17726.6767169    
                              N = 558.00146778    
                            current damping = 0.500
 
          Norm of current diis error: 0.49058E-01
          max. resid. norm for Fia-block=  5.709D-04 for orbital    268a         
          max. resid. fock norm         =  1.393D-03 for orbital   5749a         

 ITERATION  ENERGY          1e-ENERGY        2e-ENERGY     RMS[dD(SAO)]   TOL
  10  -3827.0181640895    -37000.116771     17213.575430    0.378D-05 0.461D-14
                            Exc = -513.197568283     Coul =  17726.7729987    
                              N = 558.00146821    
                            current damping = 0.350
 
          Norm of current diis error: 0.11235E-01
          max. resid. norm for Fia-block=  2.129D-04 for orbital    248a         
          max. resid. fock norm         =  4.374D-04 for orbital   5579a         
          mo-orthogonalization: Cholesky decomposition

 ITERATION  ENERGY          1e-ENERGY        2e-ENERGY     RMS[dD(SAO)]   TOL
  11  -3827.0181645929    -36999.989255     17213.447913    0.202D-05 0.461D-14
                            Exc = -513.193453847     Coul =  17726.6413671    
                              N = 558.00146839    
                            current damping = 0.400
 
          Norm of current diis error: 0.10759E-01
          max. resid. norm for Fia-block=  1.155D-04 for orbital    248a         
          max. resid. fock norm         =  1.959D-04 for orbital   5579a         

 ITERATION  ENERGY          1e-ENERGY        2e-ENERGY     RMS[dD(SAO)]   TOL
  12  -3827.0181672230    -37000.025307     17213.483963    0.652D-06 0.461D-14
                            Exc = -513.192322458     Coul =  17726.6762851    
                              N = 558.00146847    
                            current damping = 0.450
 
          Norm of current diis error: 0.25925E-02
          max. resid. norm for Fia-block=  3.316D-05 for orbital    248a         
          max. resid. fock norm         =  8.463D-05 for orbital   5633a         

 ITERATION  ENERGY          1e-ENERGY        2e-ENERGY     RMS[dD(SAO)]   TOL
  13  -3827.0181673729    -37000.040640     17213.499296    0.220D-06 0.461D-14
                            Exc = -513.193946289     Coul =  17726.6932419    
                              N = 558.00146850    
                            current damping = 0.300
 
          Norm of current diis error: 0.95406E-03
          max. resid. norm for Fia-block=  1.164D-05 for orbital    253a         
          max. resid. fock norm         =  2.185D-05 for orbital   5748a         

 ITERATION  ENERGY          1e-ENERGY        2e-ENERGY     RMS[dD(SAO)]   TOL
  14  -3827.0181673887    -37000.039732     17213.498388    0.115D-06 0.461D-14
                            Exc = -513.193795421     Coul =  17726.6921838    
                              N = 558.00146851    
                            current damping = 0.350
 
          Norm of current diis error: 0.53973E-03
          max. resid. norm for Fia-block=  5.821D-06 for orbital    257a         
          max. resid. fock norm         =  1.793D-05 for orbital   5820a         

 DENSITY CONVERGED !


 ITERATION  ENERGY          1e-ENERGY        2e-ENERGY     RMS[dD(SAO)]   TOL
  15  -3827.0181673955    -37000.039893     17213.498549    0.412D-07 0.461D-14
                            Exc = -513.193824620     Coul =  17726.6923736    
                              N = 558.00146851    
                            current damping = 0.400
 
          Norm of current diis error: 0.21361E-03
          max. resid. norm for Fia-block=  3.024D-06 for orbital    257a         
          max. resid. fock norm         =  7.900D-06 for orbital   5820a         
          mo-orthogonalization: Cholesky decomposition

 DENSITY CONVERGED !


 ITERATION  ENERGY          1e-ENERGY        2e-ENERGY     RMS[dD(SAO)]   TOL
  16  -3827.0181673945    -37000.040481     17213.499137    0.175D-07 0.461D-14
                            Exc = -513.193807359     Coul =  17726.6929441    
                              N = 558.00146852    
                            current damping = 0.250
 
          Norm of current diis error: 0.99902E-04
          max. resid. norm for Fia-block=  9.899D-07 for orbital    257a         
          max. resid. fock norm         =  1.583D-06 for orbital   5389a         

 DENSITY CONVERGED !


 ITERATION  ENERGY          1e-ENERGY        2e-ENERGY     RMS[dD(SAO)]   TOL
  17  -3827.0181673956    -37000.039715     17213.498371    0.796D-08 0.461D-14
                            Exc = -513.193795233     Coul =  17726.6921663    
                              N = 558.00146852    
                            current damping = 0.300
 
          Norm of current diis error: 0.53724E-04
          max. resid. norm for Fia-block=  6.610D-07 for orbital    267a         
          max. resid. fock norm         =  1.322D-06 for orbital   5822a         

 DENSITY CONVERGED !


 ITERATION  ENERGY          1e-ENERGY        2e-ENERGY     RMS[dD(SAO)]   TOL
  18  -3827.0181673959    -37000.040000     17213.498656    0.395D-08 0.461D-14
                            Exc = -513.193803460     Coul =  17726.6924591    
                              N = 558.00146852    
                            current damping = 0.350
 
          Norm of current diis error: 0.14841E-04
          max. resid. norm for Fia-block=  2.276D-07 for orbital    267a         
          max. resid. fock norm         =  5.687D-07 for orbital   5822a         

 ENERGY & DENSITY CONVERGED !


 ITERATION  ENERGY          1e-ENERGY        2e-ENERGY     RMS[dD(SAO)]   TOL
  19  -3827.0168305295    -37000.040006     17213.499998    0.135D-08 0.461D-14
                            Exc = -513.192470393     Coul =  17726.6924687    
                              N = 558.00026737    
                            current damping = 0.200
 
          Norm of current diis error: 0.94332E-05
          max. resid. norm for Fia-block=  8.671D-08 for orbital    257a         
          max. resid. fock norm         =  2.406D-07 for orbital   5823a         

 End of SCF iterations

   convergence criteria satisfied after   19 iterations


                  ------------------------------------------ 
                 |  total energy      =  -3827.01683052951  |
                  ------------------------------------------ 
                 :  kinetic energy    =   3811.22573430041  :
                 :  potential energy  =  -7638.24256482991  :
                 :  virial theorem    =      1.99587378448  :
                 :  wavefunction norm =      1.00000000000  :
                  .......................................... 


 <geterg> : there is no data group $energy 


 <skperg> : $end is missing 


 orbitals $scfmo  will be written to file mos

    irrep                275a        276a        277a        278a        279a   
 eigenvalues H         -0.29991    -0.29945    -0.29747    -0.29508    -0.28775
            eV          -8.1609     -8.1484     -8.0947     -8.0296     -7.8302
 occupation              2.0000      2.0000      2.0000      2.0000      2.0000 

    irrep                280a        281a        282a        283a        284a   
 eigenvalues H         -0.10976    -0.10129    -0.09768    -0.09318    -0.08816
            eV          -2.9868     -2.7562     -2.6581     -2.5355     -2.3990
 
 
 ! grave: sending quit signal to master process
 
 
 
 
 ==============================================================================
                           electrostatic moments
 ==============================================================================

 reference point for electrostatic moments:    0.00000   0.00000   0.00000

 
              nuc           elec       ->  total
 ------------------------------------------------------------------------------
                          charge      
 ------------------------------------------------------------------------------
         559.000000    -558.000000       1.000000
 
 ------------------------------------------------------------------------------
                       dipole moment  
 ------------------------------------------------------------------------------
   x       4.595814      -5.703479      -1.107665
   y     -61.824148      64.673943       2.849795
   z       0.000000      -0.000000      -0.000000
 
   | dipole moment | =     3.0575 a.u. =     7.7714 debye 
 
 ------------------------------------------------------------------------------
                     quadrupole moment
 ------------------------------------------------------------------------------
  xx   19176.888258  -19385.034687    -208.146429
  yy    7094.205083   -7468.160141    -373.955058
  zz   18481.602345  -18692.139289    -210.536944
  xy    -275.609807     267.587685      -8.022123
  xz       0.000000      -0.000000      -0.000000
  yz       0.000000      -0.000000      -0.000000
 
     1/3  trace=    -264.212810
     anisotropy=     165.211717
 
 ==============================================================================
 

    ridft profiling
  --------------------------------------------------------------------
             module   cpu total (s)       %  wall total (s)       %

               RIDFT         23965.9  100.00         23971.3  100.00
         Ridft_b_scf           560.1    2.34           559.6    2.33
        b_scf_prelim             0.0    0.00             0.0    0.00
        b_scf_molinp             0.0    0.00             0.0    0.00
         b_scf_init0             0.0    0.00             0.0    0.00
        b_scf_auxbas             0.0    0.00             0.0    0.00
      b_scf_symmetry             0.0    0.00             0.0    0.00
         b_scf_cosmo             0.0    0.00             0.0    0.00
        b_scf_params            39.6    0.17            39.6    0.17
          b_scf_ri-j            48.5    0.20            48.4    0.20
    b_scf_ri-j_auxpq            48.2    0.20            48.1    0.20
     ri-j_auxpq_chol            11.9    0.05            11.9    0.05
         b_scf_1elec            24.2    0.10            24.2    0.10
       b_scf_moinput           447.7    1.87           447.4    1.87
     moinput_orthmos           445.8    1.86           445.4    1.86
    b_scf_dft-dstmax             0.0    0.00             0.0    0.00
           Ridft_scf         23399.5   97.64         23405.3   97.64
          Scf_b_loop             0.0    0.00             0.0    0.00
                noga             0.0    0.00             0.0    0.00
            Scf_loop         23376.9   97.54         23381.7   97.54
     scf_loop_mkdmat            87.9    0.37            87.8    0.37
       scf_loop_ri-j          3965.5   16.55          3962.4   16.53
      parlp1.bc.dens             3.2    0.01             3.2    0.01
        parlp1.gs.gp            19.7    0.08            19.7    0.08
        parlp2.bc.gq             0.0    0.00             0.0    0.00
        scf_loop_dft         14397.2   60.07         14386.4   60.02
      pardft.bc.dens             0.0    0.00             0.0    0.00
        dft_grid_con            10.2    0.04            10.2    0.04
          dft_xcmrhf         14311.3   59.72         14300.6   59.66
          dft_getval           104.5    0.44           104.6    0.44
          funct2 dst             1.5    0.01             1.5    0.01
      funct2 f2loop1            18.8    0.08            18.7    0.08
      funct2 f2loop2            45.6    0.19            45.7    0.19
          funct2 s+c            37.3    0.16            37.2    0.16
        funct2 cmf_2            33.3    0.14            33.3    0.14
          dft_mkdens          6867.1   28.65          6861.9   28.63
        dft_mgga-fun             2.4    0.01             2.4    0.01
          dft_mkfock          7336.0   30.61          7330.4   30.58
     pardft.red.fock          1071.2    4.47          1070.4    4.47
     scf_loop_energy             0.4    0.00             0.4    0.00
     scf_loop_mkfock             0.7    0.00             0.7    0.00
       scf_loop_diis          2821.2   11.77          2819.0   11.76
       scf_loop_diag          1319.7    5.51          1318.7    5.50
         diag_tritrn           479.2    2.00           478.9    2.00
          diag_rdiag           838.6    3.50           838.0    3.50
     scf_loop_modump           370.5    1.55           392.8    1.64
      scf_loop_ortho           399.2    1.67           398.9    1.66
          Scf_a_loop            22.5    0.09            23.5    0.10
         Ridft_a_scf             6.3    0.03             6.4    0.03
         a_scf_fanal             6.3    0.03             6.3    0.03
 


    ------------------------------------------------------------------------
         total  cpu-time :  6 hours 39 minutes and 53 seconds
         total wall-time :  6 hours 39 minutes and 58 seconds
    ------------------------------------------------------------------------


   ****  ridft : all done  ****


    2016-06-15 22:57:14.758 

