           Doing BLAS/Lapack in the master proc. with  8 CPUs.
           SMPCPUS    set: Shared-memory Parallelization with   8 CPUs.

           SMP Parallelization Reference:
           C. van Wullen, J. Comput. Chem. 32 (2011) 1195--1201
 operating system is UNIX !

 ridft (c-18-134.gp.local) : TURBOMOLE V7.2 ( 21454 ) 4 Oct 2017 at 12:48:15
 Copyright (C) 2017 TURBOMOLE GmbH, Karlsruhe


    2018-04-24 21:12:57.458 



                                  r i d f t

                        DFT program with RI approximation 
                                for coulomb part 




                                                 
                                 References:     
                                                 
          TURBOMOLE:                             
              R. Ahlrichs, M. Baer, M. Haeser, H. Horn, and
              C. Koelmel
              Electronic structure calculations on workstation
              computers: the program system TURBOMOLE
              Chem. Phys. Lett. 162: 165 (1989)
          Density Functional:                              
              O. Treutler and R. Ahlrichs                      
              Efficient Molecular Numerical Integration Schemes
              J. Chem. Phys. 102: 346 (1995)                   
          Parallel Version:                                
              Performance of parallel TURBOMOLE for Density    
              Functional Calculations                          
              M. v. Arnim and R. Ahlrichs                      
              J. Comp. Chem. 19: 1746 (1998)                   
          RI-J Method:                                     
              Auxiliary Basis Sets to approximate Coulomb      
              Potentials                                       
              Chem. Phys. Lett. 240: 283 (1995)                
              K. Eichkorn, O. Treutler, H. Oehm, M. Haeser     
              and R. Ahlrichs                                  
              Chem. Phys. Lett. 242: 652 (1995)                
                                                           
              Auxiliary Basis Sets for Main Row Atoms and their
              Use to approximate Coulomb Potentials            
              K. Eichkorn, F. Weigend, O. Treutler and         
              R. Ahlrichs                                      
              Theo. Chem. Acc. 97: 119 (1997)                   
                                                           
              Accurate Coulomb-fitting basis sets for H to Rn 
              F. Weigend                                        
              Phys. Chem. Chem. Phys. 8: 1057 (2006)            
                                                           
          Multipole accelerated RI-J (MARI-J):             
              Fast evaluation of the Coulomb potential for     
              electron densities using multipole accelerated   
              resolution of identity approximation             
              M. Sierka, A. Hogekamp and R. Ahlrichs           
              J. Chem. Phys. 118: 9136 (2003)                  
          RI-JK Method:                                     
              A fully direct RI-HF algorithm: Implementation,
              optimised auxiliary basis sets, demonstration of
              accuracy and efficiency                         
              F. Weigend                                      
              Phys. Chem. Chem. Phys. 4: 4285 (2002)           
          Two-component HF and DFT with spin-orbit coupling:  
              Self-consistent treatment of spin-orbit         
              interactions with efficient Hartree-Fock and    
              density functional methods                      
              M. K. Armbruster, F. Weigend, C. van Wüllen and 
              W. Klopper                                      
              Phys. Chem. Chem. Phys. 10: 1748 (2008)         
          Relativistic all-electron 2c calculations           
              An efficient implementation of two-component    
              relativistic exact-decoupling methods for large 
              molecules                                       
              D. Peng, N. Middendorf, F. Weigend, M. Reiher   
              J. Chem. Phys. 138, 184105 (2013)               
                                         




              +--------------------------------------------------+
              |      general information about current run       |
              +--------------------------------------------------+

 

 DENSITY CONVERGENCE CHECK SWITCHED ON !
 SCF CONVERGENCE IF RMS(delta[D]) <     0.1000000000E-06

 PBE functional
 exchange:    LDA + PBE
 correlation: LDA (PW) + PBE
 A DFT calculation using the RI-J approximation will be carried out.
 Allocatable memory for RI due to $ricore (MB):                   500


              +--------------------------------------------------+
              | Atomic coordinate, charge and isotop information |
              +--------------------------------------------------+

                    atomic coordinates            atom    charge  isotop
          1.18312216   -1.60799188    1.52295994    n      7.000     0
          0.77325684   -3.42323994    1.95473540    h      1.000     0
         -0.81722377   -0.16504076    0.55683381    c      6.000     0
         -2.89273913   -1.11192077    0.23355612    o      8.000     0
         -0.12637471    2.44015652    0.03710929    c      6.000     0
         -1.53019350    3.68838710   -0.74235935    h      1.000     0
          2.23657039    3.24642668    0.54902820    c      6.000     0
          2.83808562    5.16626679    0.20755398    h      1.000     0
          4.03292084    1.67543422    1.54784023    n      7.000     0
          5.77374816    2.31283841    1.97179275    h      1.000     0
          3.59573912   -0.83748588    2.13220021    c      6.000     0
          5.18504248   -2.19949672    3.07758398    o      8.000     0
         -1.17862634   -0.05615881    8.94197459    c      6.000     0
         -3.66691602    1.34467401    9.34802554    c      6.000     0
         -5.00308733    0.17643362   10.39656340    h      1.000     0
         -3.36550553    3.08357079   10.41418071    h      1.000     0
         -4.53186214    1.83883176    7.54304671    h      1.000     0
         -0.01561969   -0.72405969   11.49551889    c      6.000     0
          1.76669852   -1.73009945   11.24837705    h      1.000     0
          0.35669596    0.97620579   12.60063478    h      1.000     0
         -1.28418154   -1.92920798   12.58539339    h      1.000     0
          0.64519422    1.63226958    7.47594567    c      6.000     0
          2.43773264    0.66360596    7.15402327    h      1.000     0
          1.03313647    3.36729602    8.52176995    h      1.000     0
         -0.15301739    2.15853300    5.64770284    h      1.000     0
         -1.67244427   -2.47507325    7.44840140    c      6.000     0
         -2.54878285   -2.05586831    5.62930446    h      1.000     0
          0.08986953   -3.49249976    7.10893727    h      1.000     0
         -2.93952040   -3.72572040    8.48810022    h      1.000     0
 
       center of nuclear mass  :    0.49603995    0.04349379    4.25507757
       center of nuclear charge:    0.42565594    0.07490340    4.46624704

              +--------------------------------------------------+
              |               basis set information              |
              +--------------------------------------------------+

              we will work with the 1s 3p 5d 7f 9g ... basis set
              ...i.e. with spherical basis functions...

   type   atoms  prim   cont   basis
   ---------------------------------------------------------------------------
    n        2     77     55   cc-pVQZ   [5s4p3d2f1g|21s6p3d2f1g]
    h       16     32     30   cc-pVQZ   [4s3p2d1f|6s3p2d1f]
    c        9     77     55   cc-pVQZ   [5s4p3d2f1g|21s6p3d2f1g]
    o        2     77     55   cc-pVQZ   [5s4p3d2f1g|21s6p3d2f1g]
   ---------------------------------------------------------------------------
   total:   29   1513   1195
   ---------------------------------------------------------------------------

   total number of primitive shells          :  111
   total number of contracted shells         :  355
   total number of cartesian basis functions : 1470
   total number of SCF-basis functions       : 1195


 integral neglect threshold       :  0.23E-13
 integral storage threshold THIZE :  0.10E-04
 integral storage threshold THIME :         5

 RI-J AUXILIARY BASIS SET information:

              we will work with the 1s 3p 5d 7f 9g ... basis set
              ...i.e. with spherical basis functions...

   type   atoms  prim   cont   basis
   ---------------------------------------------------------------------------
    n        2     70     49   cc-pVQZ   [6s4p3d1f1g|12s5p4d2f1g]
    h       16     16     11   cc-pVQZ   [3s1p1d|5s2p1d]
    c        9     70     49   cc-pVQZ   [6s4p3d1f1g|12s5p4d2f1g]
    o        2     70     49   cc-pVQZ   [6s4p3d1f1g|12s5p4d2f1g]
   ---------------------------------------------------------------------------
   total:   29   1166    813
   ---------------------------------------------------------------------------

   total number of primitive shells          :   80
   total number of contracted shells         :  275
   total number of cartesian basis functions :  985
   total number of SCF-basis functions       :  813


 symmetry group of the molecule :   c1 

 the group has the following generators :
   c1(z)

    1 symmetry operations found

 there are 1 real representations :   a   

 maximum number of shells which are related by symmetry :  1


    mo occupation :
   irrep   mo's   occupied
    a     1195       50
 
 number of basis functions   :                   1195
 number of occupied orbitals :                     50
 
  
           ------------------
           density functional
           ------------------
 PBE functional
 exchange:    LDA + PBE
 correlation: LDA (PW) + PBE

 iterations will be done with small grid
  
 spherical integration : Lebedev's spherical grid
 spherical gridsize    :                     5
    i.e. gridpoints    :                   590
 value for diffuse not defined
 radial integration    : Chebyshev 2nd kind (scaling 3)
 radial gridsize       :                     8
 integration cells     :                    29
 partition function    : becke
 partition sharpness   :                     3
  

 biggest AO integral is expected to be     4.785886462
  
           ------------------------
               RI-J - INFORMATION
           ------------------------
 Contributions to RI integral batches: 
  neglected integral batches:                 19430
  direct contribution:                        32207
  memory contribution:                 11553
 Memory core needed for (P|Q) and Cholesky      6 MByte
 Memory core minimum needed except of (P|Q)     1 MByte
 Total minimum memory core needed (sum)         6 MByte
  
 ****************************************
 Memory allocated for RI-J   336 MByte
 ****************************************
                                            

          ------------------------
          nuclear repulsion energy  :   830.366886319    
          ------------------------


         -----------------
         -S,T+V- integrals
         -----------------

 1e-integrals will be neglected if expon. factor < 0.227344E-14
 Difference densities >>NOT<< switched on in parallel ridft!

 DIIS switched on: error vector is FDS-SDF
 Max. Iterations for DIIS is     :   4
 DIIS matrix (see manual) 
    Scaling factor of diagonals  :  1.200
    threshold for scaling factor :  0.000

 scf convergence criterion : increment of total energy < .1000000D-08
                  and increment of one-electron energy < .1000000D-05

  MOs are in ASCII format !


 automatic virtual orbital shift switched on 
      shift if e(lumo)-e(homo) < 0.10000000    


 reading orbital data $scfmo  from file mos
 orbital characterization : expanded
 mo provided and orthogonalized by Cholesky decomposition

 DSCF restart information will be dumped onto file mos


 Starting SCF iterations

          Overall gridpoints after grid construction =        134191

 ITERATION  ENERGY          1e-ENERGY        2e-ENERGY     RMS[dD(SAO)]   TOL
   1  -609.51149169154    -2459.5199738     1019.6415958    0.000D+00 0.227D-13
                            Exc = -83.8996893648     Coul =  1103.54128519    
                              N = 99.999902652    
                            current damping = 0.700
 
          max. resid. norm for Fia-block=  4.551D-01 for orbital     30a         
          max. resid. fock norm         =  8.761D+00 for orbital   1054a         

 ITERATION  ENERGY          1e-ENERGY        2e-ENERGY     RMS[dD(SAO)]   TOL
   2  -611.68792831420    -2472.8715927     1030.8167781    0.394D-02 0.227D-13
                            Exc = -84.5481481398     Coul =  1115.36492624    
                              N = 99.999928820    
                            current damping = 0.650
 
          Norm of current diis error:  3.9998    
          max. resid. norm for Fia-block=  1.667D-01 for orbital      1a         
          max. resid. fock norm         =  3.784D-01 for orbital   1128a         

 ITERATION  ENERGY          1e-ENERGY        2e-ENERGY     RMS[dD(SAO)]   TOL
   3  -611.99171429332    -2476.6563273     1034.2977267    0.187D-02 0.227D-13
                            Exc = -85.0486701176     Coul =  1119.34639681    
                              N = 99.999943424    
                            current damping = 0.550
 
          Norm of current diis error:  1.9626    
          max. resid. norm for Fia-block=  6.584D-02 for orbital      1a         
          max. resid. fock norm         =  7.047D-02 for orbital     52a         

 ITERATION  ENERGY          1e-ENERGY        2e-ENERGY     RMS[dD(SAO)]   TOL
   4  -612.08349609401    -2477.8962848     1035.4459024    0.128D-02 0.227D-13
                            Exc = -85.0344613676     Coul =  1120.48036377    
                              N = 99.999956559    
                            current damping = 0.450
 
          Norm of current diis error: 0.92915    
          max. resid. norm for Fia-block=  3.558D-02 for orbital     15a         
          max. resid. fock norm         =  8.036D-02 for orbital   1130a         

 ITERATION  ENERGY          1e-ENERGY        2e-ENERGY     RMS[dD(SAO)]   TOL
   5  -612.09946885313    -2478.5777963     1036.1114411    0.479D-03 0.227D-13
                            Exc = -85.2218780543     Coul =  1121.33331919    
                              N = 99.999961529    
                            current damping = 0.350
 
          Norm of current diis error: 0.56268    
          max. resid. norm for Fia-block=  1.214D-02 for orbital     48a         
          max. resid. fock norm         =  1.432D-02 for orbital    991a         
          mo-orthogonalization: Cholesky decomposition

 ITERATION  ENERGY          1e-ENERGY        2e-ENERGY     RMS[dD(SAO)]   TOL
   6  -612.10800711040    -2478.8781868     1036.4032933    0.372D-03 0.227D-13
                            Exc = -85.2125640426     Coul =  1121.61585738    
                              N = 99.999963771    
                            current damping = 0.200
 
          Norm of current diis error: 0.12736    
          max. resid. norm for Fia-block=  4.299D-03 for orbital     47a         
          max. resid. fock norm         =  7.435D-03 for orbital   1134a         

 ITERATION  ENERGY          1e-ENERGY        2e-ENERGY     RMS[dD(SAO)]   TOL
   7  -612.10800708572    -2478.7624472     1036.2875538    0.129D-03 0.227D-13
                            Exc = -85.1964548586     Coul =  1121.48400861    
                              N = 99.999964342    
                            current damping = 0.250
 
          Norm of current diis error: 0.12647    
          max. resid. norm for Fia-block=  2.528D-03 for orbital     49a         
          max. resid. fock norm         =  4.315D-03 for orbital   1082a         

 ITERATION  ENERGY          1e-ENERGY        2e-ENERGY     RMS[dD(SAO)]   TOL
   8  -612.10838539999    -2478.7939382     1036.3186665    0.411D-04 0.227D-13
                            Exc = -85.2037636350     Coul =  1121.52243010    
                              N = 99.999964454    
                            current damping = 0.300
 
          Norm of current diis error: 0.41339E-01
          max. resid. norm for Fia-block=  1.606D-03 for orbital     50a         
          max. resid. fock norm         =  2.616D-03 for orbital   1112a         

 ITERATION  ENERGY          1e-ENERGY        2e-ENERGY     RMS[dD(SAO)]   TOL
   9  -612.10839724546    -2478.8392675     1036.3639840    0.338D-04 0.227D-13
                            Exc = -85.2127014205     Coul =  1121.57668539    
                              N = 99.999964559    
                            current damping = 0.150
 
          Norm of current diis error: 0.31487E-01
          max. resid. norm for Fia-block=  9.076D-04 for orbital     50a         
          max. resid. fock norm         =  1.535D-03 for orbital   1112a         

 ITERATION  ENERGY          1e-ENERGY        2e-ENERGY     RMS[dD(SAO)]   TOL
  10  -612.10842061404    -2478.8413977     1036.3660908    0.205D-04 0.227D-13
                            Exc = -85.2092383282     Coul =  1121.57532909    
                              N = 99.999964481    
                            current damping = 0.050
 
          Norm of current diis error: 0.15004E-01
          max. resid. norm for Fia-block=  3.097D-04 for orbital     47a         
          max. resid. fock norm         =  4.871D-04 for orbital   1113a         
          mo-orthogonalization: Cholesky decomposition

 ITERATION  ENERGY          1e-ENERGY        2e-ENERGY     RMS[dD(SAO)]   TOL
  11  -612.10842512559    -2478.8257026     1036.3503912    0.508D-05 0.227D-13
                            Exc = -85.2097637296     Coul =  1121.56015491    
                              N = 99.999964498    
                            current damping = 0.100
 
          Norm of current diis error: 0.71319E-02
          max. resid. norm for Fia-block=  1.649D-04 for orbital     47a         
          max. resid. fock norm         =  2.651D-04 for orbital     31a         

 ITERATION  ENERGY          1e-ENERGY        2e-ENERGY     RMS[dD(SAO)]   TOL
  12  -612.10842607427    -2478.8322718     1036.3569594    0.228D-05 0.227D-13
                            Exc = -85.2093486952     Coul =  1121.56630805    
                              N = 99.999964512    
                            current damping = 0.150
 
          Norm of current diis error: 0.35119E-02
          max. resid. norm for Fia-block=  8.867D-05 for orbital     48a         
          max. resid. fock norm         =  1.543D-04 for orbital   1082a         

 ITERATION  ENERGY          1e-ENERGY        2e-ENERGY     RMS[dD(SAO)]   TOL
  13  -612.10842638024    -2478.8315137     1036.3562010    0.133D-05 0.227D-13
                            Exc = -85.2096362337     Coul =  1121.56583719    
                              N = 99.999964498    
                            current damping = 0.200
 
          Norm of current diis error: 0.11070E-02
          max. resid. norm for Fia-block=  3.007D-05 for orbital     48a         
          max. resid. fock norm         =  4.627D-05 for orbital   1082a         

 ITERATION  ENERGY          1e-ENERGY        2e-ENERGY     RMS[dD(SAO)]   TOL
  14  -612.10842640694    -2478.8311651     1036.3558524    0.395D-06 0.227D-13
                            Exc = -85.2095087654     Coul =  1121.56536117    
                              N = 99.999964503    
                            current damping = 0.050
 
          Norm of current diis error: 0.48796E-03
          max. resid. norm for Fia-block=  1.379D-05 for orbital     49a         
          max. resid. fock norm         =  2.415D-05 for orbital   1187a         

 ITERATION  ENERGY          1e-ENERGY        2e-ENERGY     RMS[dD(SAO)]   TOL
  15  -612.10842640682    -2478.8310298     1036.3557170    0.235D-06 0.227D-13
                            Exc = -85.2095496348     Coul =  1121.56526668    
                              N = 99.999964502    
                            current damping = 0.050
 
          Norm of current diis error: 0.47837E-03
          max. resid. norm for Fia-block=  7.679D-06 for orbital     49a         
          max. resid. fock norm         =  1.188D-05 for orbital   1187a         
          mo-orthogonalization: Cholesky decomposition

 ITERATION  ENERGY          1e-ENERGY        2e-ENERGY     RMS[dD(SAO)]   TOL
  16  -612.10842641240    -2478.8312402     1036.3559275    0.107D-06 0.227D-13
                            Exc = -85.2095453062     Coul =  1121.56547281    
                              N = 99.999964502    
                            current damping = 0.100
 
          Norm of current diis error: 0.88576E-04
          max. resid. norm for Fia-block=  2.343D-06 for orbital     45a         
          max. resid. fock norm         =  3.614D-06 for orbital   1133a         

 DENSITY CONVERGED !


 ITERATION  ENERGY          1e-ENERGY        2e-ENERGY     RMS[dD(SAO)]   TOL
  17  -612.10842641245    -2478.8312067     1036.3558940    0.381D-07 0.227D-13
                            Exc = -85.2095439592     Coul =  1121.56543792    
                              N = 99.999964502    
                            current damping = 0.150
 
          Norm of current diis error: 0.68963E-04
          max. resid. norm for Fia-block=  1.891D-06 for orbital     48a         
          max. resid. fock norm         =  3.415D-06 for orbital   1082a         

 ENERGY & DENSITY CONVERGED !

          Overall gridpoints after grid construction =        436296

 ITERATION  ENERGY          1e-ENERGY        2e-ENERGY     RMS[dD(SAO)]   TOL
  18  -612.10842684412    -2478.8312029     1036.3558898    0.278D-07 0.227D-13
                            Exc = -85.2095399591     Coul =  1121.56542974    
                              N = 99.999952843    
                            current damping = 0.050
 
          Norm of current diis error: 0.22502E-04
          max. resid. norm for Fia-block=  6.602D-07 for orbital     48a         
          max. resid. fock norm         =  1.197D-06 for orbital   1082a         

 End of SCF iterations

   convergence criteria satisfied after    18 iterations


                  ------------------------------------------ 
                 |  total energy      =   -612.10842684412  |
                  ------------------------------------------ 
                 :  kinetic energy    =    609.67777738563  :
                 :  potential energy  =  -1221.78620422975  :
                 :  virial theorem    =      1.99602905408  :
                 :  wavefunction norm =      1.00000000000  :
                  .......................................... 


 <geterg> : there is no data group $energy 


 <skperg> : $end is missing 


 orbitals $scfmo  will be written to file mos

    irrep                 46a         47a         48a         49a         50a   
 eigenvalues H         -0.27963    -0.26096    -0.25851    -0.23380    -0.22818
            eV          -7.6092     -7.1013     -7.0344     -6.3620     -6.2092
 occupation              2.0000      2.0000      2.0000      2.0000      2.0000 

    irrep                 51a         52a         53a         54a         55a   
 eigenvalues H         -0.08641    -0.03808    -0.02017     0.00255     0.02256
            eV          -2.3514     -1.0362     -0.5489      0.0695      0.6139
 
 
 
 
 ==============================================================================
                           electrostatic moments
 ==============================================================================

 reference point for electrostatic moments:    0.00000   0.00000   0.00000

 
              nuc           elec       ->  total
 ------------------------------------------------------------------------------
                          charge      
 ------------------------------------------------------------------------------
         100.000000    -100.000000       0.000000
 
 ------------------------------------------------------------------------------
                       dipole moment  
 ------------------------------------------------------------------------------
   x      42.565594     -41.766843       0.798752
   y       7.490340      -6.052945       1.437396
   z     446.624704    -446.806443      -0.181739
 
   | dipole moment | =     1.6544 a.u. =     4.2051 debye 
 
 ------------------------------------------------------------------------------
                     quadrupole moment
 ------------------------------------------------------------------------------
  xx     753.958705    -818.493345     -64.534640
  yy     381.125688    -436.919599     -55.793912
  zz    3640.738897   -3703.025293     -62.286396
  xy      15.513115      -9.514412       5.998704
  xz    -198.313367     195.880667      -2.432700
  yz     -79.987712      81.271061       1.283348
 
     1/3  trace=     -60.871649
     anisotropy=      13.872708
 
 ==============================================================================
 


    ------------------------------------------------------------------------
         total  cpu-time : 22 minutes and 24 seconds
         total wall-time :  3 minutes and 35 seconds
    ------------------------------------------------------------------------

   ****  ridft : all done  ****


    2018-04-24 21:16:32.338 

