Using Slurm to start processes with PMI2
STARTING ridft ON 8 PROCESSORS!
RUNNING PROGRAM /beegfs/modfac/apps/TURBOMOLE/7.0_intel_GA/bin/em64t-unknown-linux-gnu_mpi/ridft_mpi.
PLEASE WAIT UNTIL ridft HAS FINISHED.
Look for the output in slave1.output.
  this is node-proc. number 1 running on node c-5-20.local
  the total number of node-proc. spawned is            8
  parallel platform: MPP, or cluster with fast interconnect

 ridft (c-5-20.local) : TURBOMOLE V7.0.2( ) 15 Jan 2016 at 17:47:42
 Copyright (C) 2016 TURBOMOLE GmbH, Karlsruhe


    2017-11-20 19:11:15.282 



                                  r i d f t

                        DFT program with RI approximation 
                                for coulomb part 




                                                 
                                 References:     
                                                 
          TURBOMOLE:                             
              R. Ahlrichs, M. Baer, M. Haeser, H. Horn, and
              C. Koelmel
              Electronic structure calculations on workstation
              computers: the program system TURBOMOLE
              Chem. Phys. Lett. 162: 165 (1989)
          Density Functional:                              
              O. Treutler and R. Ahlrichs                      
              Efficient Molecular Numerical Integration Schemes
              J. Chem. Phys. 102: 346 (1995)                   
          Parallel Version:                                
              Performance of parallel TURBOMOLE for Density    
              Functional Calculations                          
              M. v. Arnim and R. Ahlrichs                      
              J. Comp. Chem. 19: 1746 (1998)                   
          RI-J Method:                                     
              Auxiliary Basis Sets to approximate Coulomb      
              Potentials                                       
              Chem. Phys. Lett. 240: 283 (1995)                
              K. Eichkorn, O. Treutler, H. Oehm, M. Haeser     
              and R. Ahlrichs                                  
              Chem. Phys. Lett. 242: 652 (1995)                
                                                           
              Auxiliary Basis Sets for Main Row Atoms and their
              Use to approximate Coulomb Potentials            
              K. Eichkorn, F. Weigend, O. Treutler and         
              R. Ahlrichs                                      
              Theo. Chem. Acc. 97: 119 (1997)                   
                                                           
              Accurate Coulomb-fitting basis sets for H to Rn 
              F. Weigend                                        
              Phys. Chem. Chem. Phys. 8: 1057 (2006)            
                                                           
          Multipole accelerated RI-J (MARI-J):             
              Fast evaluation of the Coulomb potential for     
              electron densities using multipole accelerated   
              resolution of identity approximation             
              M. Sierka, A. Hogekamp and R. Ahlrichs           
              J. Chem. Phys. 118: 9136 (2003)                  
          RI-JK Method:                                     
              A fully direct RI-HF algorithm: Implementation,
              optimised auxiliary basis sets, demonstration of
              accuracy and efficiency                         
              F. Weigend                                      
              Phys. Chem. Chem. Phys. 4: 4285 (2002)           
          Two-component HF and DFT with spin-orbit coupling:  
              Self-consistent treatment of spin-orbit         
              interactions with efficient Hartree-Fock and    
              density functional methods                      
              M. K. Armbruster, F. Weigend, C. van Wüllen and 
              W. Klopper                                      
              Phys. Chem. Chem. Phys. 10: 1748 (2008)         
          Relativistic all-electron 2c calculations           
              An efficient implementation of two-component    
              relativistic exact-decoupling methods for large 
              molecules                                       
              D. Peng, N. Middendorf, F. Weigend, M. Reiher   
              J. Chem. Phys. 138, 184105 (2013)               
                                         


 


              +--------------------------------------------------+
              |      general information about current run       |
              +--------------------------------------------------+

 

 SCF run will be profiled !


 DENSITY CONVERGENCE CHECK SWITCHED ON !
 SCF CONVERGENCE IF RMS(delta[D]) <     0.1000000000E-06

 PBE functional
 exchange:    LDA + PBE
 correlation: LDA (PW) + PBE
 A DFT calculation using the RI-J approximation will be carried out.
 Allocatable memory for RI due to $ricore (MB):       13000


              +--------------------------------------------------+
              | Atomic coordinate, charge and isotop information |
              +--------------------------------------------------+

                    atomic coordinates            atom    charge  isotop
          3.97940282    0.35506949   -1.19530840    c      6.000     0
          6.19090152    0.16772540    2.63989889    c      6.000     0
          8.71006308   -0.04201742    1.27188435    c      6.000     0
          6.42201396    0.19166849   -2.70111425    c      6.000     0
          8.32316372   -1.20602629   -1.22240112    n      7.000     0
          4.40544146    1.59163541    1.18067482    o      8.000     0
          9.99711346   -1.17398055   -2.17565549    h      1.000     0
         10.01363654   -1.21173539    2.37185051    h      1.000     0
          6.08982629   -0.82981161   -4.46890676    h      1.000     0
          2.56464943    1.48043183   -2.18778153    h      1.000     0
          6.40908551    1.18083206    4.42239846    h      1.000     0
          7.04667911    2.12593565   -3.16482104    h      1.000     0
          9.54362721    1.86173948    1.11313392    h      1.000     0
          5.41899358   -1.72891114    3.00900390    h      1.000     0
          3.21288341   -1.54823616   -0.84978299    h      1.000     0
 
       center of nuclear mass  :    6.33306754    0.19291384    0.00007844
       center of nuclear charge:    6.36700959    0.17670498   -0.01978764

              +--------------------------------------------------+
              |               basis set information              |
              +--------------------------------------------------+

              we will work with the 1s 3p 5d 7f 9g ... basis set
              ...i.e. with spherical basis functions...

   type   atoms  prim   cont   basis
   ---------------------------------------------------------------------------
    c        4     77     55   cc-pVQZ   [5s4p3d2f1g|21s6p3d2f1g]
    n        1     77     55   cc-pVQZ   [5s4p3d2f1g|21s6p3d2f1g]
    o        1     77     55   cc-pVQZ   [5s4p3d2f1g|21s6p3d2f1g]
    h        9     32     30   cc-pVQZ   [4s3p2d1f|6s3p2d1f]
   ---------------------------------------------------------------------------
   total:   15    750    600
   ---------------------------------------------------------------------------

   total number of primitive shells          :  111
   total number of contracted shells         :  180
   total number of cartesian basis functions :  735
   total number of SCF-basis functions       :  600


 integral neglect threshold       :  0.45E-13
 integral storage threshold THIZE :  0.10E-04
 integral storage threshold THIME :         5

 RI-J AUXILIARY BASIS SET information:

              we will work with the 1s 3p 5d 7f 9g ... basis set
              ...i.e. with spherical basis functions...

   type   atoms  prim   cont   basis
   ---------------------------------------------------------------------------
    c        4     70     49   cc-pVQZ   [6s4p3d1f1g|12s5p4d2f1g]
    n        1     70     49   cc-pVQZ   [6s4p3d1f1g|12s5p4d2f1g]
    o        1     70     49   cc-pVQZ   [6s4p3d1f1g|12s5p4d2f1g]
    h        9     16     11   cc-pVQZ   [3s1p1d|5s2p1d]
   ---------------------------------------------------------------------------
   total:   15    564    393
   ---------------------------------------------------------------------------

   total number of primitive shells          :   80
   total number of contracted shells         :  135
   total number of cartesian basis functions :  474
   total number of SCF-basis functions       :  393


 symmetry group of the molecule :   c1 

 the group has the following generators :
   c1(z)

    1 symmetry operations found

 there are 1 real representations :   a   

 maximum number of shells which are related by symmetry :  1


    mo occupation :
   irrep   mo's   occupied
    a      600       24
 
 number of basis functions   :          600
 number of occupied orbitals :           24
 
  
           ------------------
           density functional
           ------------------
 PBE functional
 exchange:    LDA + PBE
 correlation: LDA (PW) + PBE
 grinp -> nfun, dfgga, dfhybrid 
           6 T F
 iterations will be done with small grid
  
 spherical integration : Lebedev's spherical grid
 spherical gridsize    :           5
    i.e. gridpoints    :         590
 value for diffuse not defined
 radial integration    : Chebyshev 2nd kind (scaling 3)
 radial gridsize       :           8
 integration cells     :          15
 partition function    : becke
 partition sharpness   :           3
  

 <rddim> : input of entry tasksize
           from data group '$pardft' failed !

               Default values taken

 <rddim> : input of entry memdiv
           from data group '$pardft' failed !

               Default values taken
  RIDFT: memory allocation for DFT gridpoints
  MEMORY is divided by 1 as DEFAULT
 Each node can hold at most  the            1 -th part
 of the gridpoints    

 biggest AO integral is expected to be     4.785886462
  
           ------------------------
               RI-J - INFORMATION
           ------------------------
 
 
 **************************************************
 *      MEMORY ALLOCATION FOR PARALLEL RI-DFT     *
 **************************************************
 
 
MEMORY FOR (MU NU/ ALPHA), SEQUENTIAL RUN              12999 MByte
 
            DIFFERENCE IN MEMORY NEED:       DIAG./SLAVE  
 
      TOTAL DIFFERENCE :                     16 MByte
 
      difference in xcore:                    2 MByte
      difference in fatmat:                   5 MByte
      getcor calls skipped by slaves:        10 MByte
 
 
           Integral memory available for diagonal.     12999 MByte
 
           Integral memory available for slave             0 MByte
 
         MEMORY FOR (MU NU/ ALPHA) ON DIAGONALIZER     12999 MByte
 
         MEMORY FOR (MU NU/ ALPHA) ON ONE SLAVE            0 MByte
 
         TOTAL MEMORY FOR (MU NU/ ALPHA),ALL NODES     12999 MByte
 
 Contributions to RI integral batches: 
  neglected integral batches:        1612
  direct contribution:                  0
  memory contribution:       14678
 Memory core needed for (P|Q) and Cholesky      2 MByte
 Memory core minimum needed except of (P|Q)     3 MByte
 Total minimum memory core needed (sum)         4 MByte
  
 ****************************************
 Memory allocated for RI-J 13002 MByte
 ****************************************
                                            

          ------------------------
          nuclear repulsion energy  :   262.344364900    
          ------------------------

 
          -----------------
          -S integrals
          -----------------

 1e-integrals will be neglected if expon. factor < 0.454689E-14
 
          -----------------
          -T+V integrals
          -----------------

 1e-integrals will be neglected if expon. factor < 0.454689E-14
 Difference densities >>NOT<< switched on in parallel ridft!

 automatic virtual orbital shift switched on 
      shift if e(lumo)-e(homo) < 0.10000000    


 DIIS switched on: error vector is FDS-SDF
 Max. Iterations for DIIS is     :   4
 DIIS matrix (see manual) 
    Scaling factor of diagonals  :  1.200
    threshold for scaling factor :  0.000

 scf convergence criterion : increment of total energy < .1000000D-08
                  and increment of one-electron energy < .1000000D-05


 <geterg> : there is no data group $energy 

  MOs are in ASCII format !


 reading orbital data $scfmo  from file mos . 

 orbital characterization : expanded
 
 mo provided and orthogonalized by Cholesky decomposition

 DSCF restart information will be dumped onto file mos


 Starting SCF iterations


 ITERATION  ENERGY          1e-ENERGY        2e-ENERGY     RMS[dD(SAO)]   TOL
   1  -286.44844183160    -902.91095367     354.11814694    0.000D+00 0.454D-13
                            Exc = -39.6495707986     Coul =  393.767717735    
                              N = 48.000066517    
                            current damping = 0.700
 
          max. resid. norm for Fia-block=  3.154D-01 for orbital      1a         
          max. resid. fock norm         =  9.931D+00 for orbital    566a         

 ITERATION  ENERGY          1e-ENERGY        2e-ENERGY     RMS[dD(SAO)]   TOL
   2  -287.35815106606    -907.34034250     357.63782653    0.304D-02 0.454D-13
                            Exc = -39.9281007265     Coul =  397.565927258    
                              N = 48.000063409    
                            current damping = 0.650
 
          Norm of current diis error:  2.6776    
          max. resid. norm for Fia-block=  1.354D-01 for orbital      1a         
          max. resid. fock norm         =  2.612D-01 for orbital    571a         

 ITERATION  ENERGY          1e-ENERGY        2e-ENERGY     RMS[dD(SAO)]   TOL
   3  -287.50179169363    -909.04111852     359.19496193    0.171D-02 0.454D-13
                            Exc = -40.1646574478     Coul =  399.359619375    
                              N = 48.000059590    
                            current damping = 0.550
 
          Norm of current diis error:  1.3252    
          max. resid. norm for Fia-block=  5.466D-02 for orbital      1a         
          max. resid. fock norm         =  5.857D-02 for orbital      1a         

 ITERATION  ENERGY          1e-ENERGY        2e-ENERGY     RMS[dD(SAO)]   TOL
   4  -287.55046140964    -909.03825873     359.14343242    0.136D-02 0.454D-13
                            Exc = -40.1650486215     Coul =  399.308481046    
                              N = 48.000062378    
                            current damping = 0.600
 
          Norm of current diis error: 0.52137    
          max. resid. norm for Fia-block=  2.688D-02 for orbital      7a         
          max. resid. fock norm         =  5.279D-02 for orbital    563a         

 ITERATION  ENERGY          1e-ENERGY        2e-ENERGY     RMS[dD(SAO)]   TOL
   5  -287.55827646770    -909.90436710     360.00172574    0.636D-03 0.454D-13
                            Exc = -40.2567572486     Coul =  400.258482986    
                              N = 48.000061227    
                            current damping = 0.650
 
          Norm of current diis error: 0.25133    
          max. resid. norm for Fia-block=  1.120D-02 for orbital     22a         
          max. resid. fock norm         =  1.184D-02 for orbital     23a         
          mo-orthogonalization: Cholesky decomposition

 ITERATION  ENERGY          1e-ENERGY        2e-ENERGY     RMS[dD(SAO)]   TOL
   6  -287.56034340806    -909.66123088     359.75652258    0.496D-03 0.454D-13
                            Exc = -40.2410269189     Coul =  399.997549495    
                              N = 48.000062009    
                            current damping = 0.700
 
          Norm of current diis error: 0.81927E-01
          max. resid. norm for Fia-block=  4.237D-03 for orbital     24a         
          max. resid. fock norm         =  5.019D-03 for orbital    571a         

 ITERATION  ENERGY          1e-ENERGY        2e-ENERGY     RMS[dD(SAO)]   TOL
   7  -287.56058873768    -909.70380990     359.79885626    0.183D-03 0.454D-13
                            Exc = -40.2450973054     Coul =  400.043953569    
                              N = 48.000062060    
                            current damping = 0.750
 
          Norm of current diis error: 0.33525E-01
          max. resid. norm for Fia-block=  1.534D-03 for orbital     10a         
          max. resid. fock norm         =  2.365D-03 for orbital    491a         

 ITERATION  ENERGY          1e-ENERGY        2e-ENERGY     RMS[dD(SAO)]   TOL
   8  -287.56062657534    -909.74294291     359.83795143    0.662D-04 0.454D-13
                            Exc = -40.2490890254     Coul =  400.087040459    
                              N = 48.000062130    
                            current damping = 0.600
 
          Norm of current diis error: 0.13949E-01
          max. resid. norm for Fia-block=  8.270D-04 for orbital     24a         
          max. resid. fock norm         =  9.485D-04 for orbital    571a         

 ITERATION  ENERGY          1e-ENERGY        2e-ENERGY     RMS[dD(SAO)]   TOL
   9  -287.56063414606    -909.73198785     359.82698880    0.414D-04 0.454D-13
                            Exc = -40.2490037717     Coul =  400.075992572    
                              N = 48.000062093    
                            current damping = 0.650
 
          Norm of current diis error: 0.70779E-02
          max. resid. norm for Fia-block=  3.090D-04 for orbital     22a         
          max. resid. fock norm         =  3.307D-04 for orbital     23a         

 ITERATION  ENERGY          1e-ENERGY        2e-ENERGY     RMS[dD(SAO)]   TOL
  10  -287.56063544828    -909.73595561     359.83095526    0.154D-04 0.454D-13
                            Exc = -40.2491052204     Coul =  400.080060483    
                              N = 48.000062140    
                            current damping = 0.700
 
          Norm of current diis error: 0.39642E-02
          max. resid. norm for Fia-block=  1.735D-04 for orbital      7a         
          max. resid. fock norm         =  3.505D-04 for orbital    563a         
          mo-orthogonalization: Cholesky decomposition

 ITERATION  ENERGY          1e-ENERGY        2e-ENERGY     RMS[dD(SAO)]   TOL
  11  -287.56063583057    -909.74247158     359.83747085    0.377D-05 0.454D-13
                            Exc = -40.2497217991     Coul =  400.087192649    
                              N = 48.000062131    
                            current damping = 0.550
 
          Norm of current diis error: 0.12682E-02
          max. resid. norm for Fia-block=  5.047D-05 for orbital      8a         
          max. resid. fock norm         =  8.360D-05 for orbital    549a         

 ITERATION  ENERGY          1e-ENERGY        2e-ENERGY     RMS[dD(SAO)]   TOL
  12  -287.56063586568    -909.74004639     359.83504563    0.308D-05 0.454D-13
                            Exc = -40.2496140372     Coul =  400.084659664    
                              N = 48.000062131    
                            current damping = 0.600
 
          Norm of current diis error: 0.77865E-03
          max. resid. norm for Fia-block=  4.239D-05 for orbital     24a         
          max. resid. fock norm         =  4.872D-05 for orbital     24a         

 ITERATION  ENERGY          1e-ENERGY        2e-ENERGY     RMS[dD(SAO)]   TOL
  13  -287.56063587814    -909.73973110     359.83473032    0.125D-05 0.454D-13
                            Exc = -40.2495811866     Coul =  400.084311508    
                              N = 48.000062130    
                            current damping = 0.450
 
          Norm of current diis error: 0.39074E-03
          max. resid. norm for Fia-block=  1.169D-05 for orbital     13a         
          max. resid. fock norm         =  2.025D-05 for orbital    491a         

 ITERATION  ENERGY          1e-ENERGY        2e-ENERGY     RMS[dD(SAO)]   TOL
  14  -287.56063588060    -909.74066324     359.83566246    0.227D-06 0.454D-13
                            Exc = -40.2496422823     Coul =  400.085304739    
                              N = 48.000062132    
                            current damping = 0.500
 
          Norm of current diis error: 0.18954E-03
          max. resid. norm for Fia-block=  9.513D-06 for orbital     23a         
          max. resid. fock norm         =  1.664D-05 for orbital    563a         

 ITERATION  ENERGY          1e-ENERGY        2e-ENERGY     RMS[dD(SAO)]   TOL
  15  -287.56063588096    -909.74068284     359.83568206    0.162D-06 0.454D-13
                            Exc = -40.2496558104     Coul =  400.085337872    
                              N = 48.000062131    
                            current damping = 0.350
 
          Norm of current diis error: 0.12978E-03
          max. resid. norm for Fia-block=  4.611D-06 for orbital     23a         
          max. resid. fock norm         =  6.251D-06 for orbital    563a         
          mo-orthogonalization: Cholesky decomposition

 ITERATION  ENERGY          1e-ENERGY        2e-ENERGY     RMS[dD(SAO)]   TOL
  16  -287.56063588138    -909.74048453     359.83548375    0.148D-06 0.454D-13
                            Exc = -40.2496375929     Coul =  400.085121345    
                              N = 48.000062131    
                            current damping = 0.400
 
          Norm of current diis error: 0.14144E-04
          max. resid. norm for Fia-block=  3.878D-07 for orbital     15a         
          max. resid. fock norm         =  4.678D-07 for orbital    574a         

 DENSITY CONVERGED !


 ITERATION  ENERGY          1e-ENERGY        2e-ENERGY     RMS[dD(SAO)]   TOL
  17  -287.56063588138    -909.74051987     359.83551909    0.101D-07 0.454D-13
                            Exc = -40.2496398835     Coul =  400.085158971    
                              N = 48.000062131    
                            current damping = 0.450
 
          Norm of current diis error: 0.42835E-05
          max. resid. norm for Fia-block=  2.407D-07 for orbital     24a         
          max. resid. fock norm         =  4.073D-07 for orbital    491a         

 ENERGY & DENSITY CONVERGED !


 ITERATION  ENERGY          1e-ENERGY        2e-ENERGY     RMS[dD(SAO)]   TOL
  18  -287.56063805298    -909.74052535     359.83552240    0.417D-08 0.454D-13
                            Exc = -40.2496425171     Coul =  400.085164915    
                              N = 48.000013940    
                            current damping = 0.300
 
          Norm of current diis error: 0.38190E-05
          max. resid. norm for Fia-block=  1.219D-07 for orbital     24a         
          max. resid. fock norm         =  1.438D-07 for orbital     24a         

 End of SCF iterations

   convergence criteria satisfied after   18 iterations


                  ------------------------------------------ 
                 |  total energy      =   -287.56063805298  |
                  ------------------------------------------ 
                 :  kinetic energy    =    286.24395960844  :
                 :  potential energy  =   -573.80459766141  :
                 :  virial theorem    =      1.99542121462  :
                 :  wavefunction norm =      1.00000000000  :
                  .......................................... 


 <geterg> : there is no data group $energy 


 <skperg> : $end is missing 


 orbitals $scfmo  will be written to file mos

    irrep                 20a         21a         22a         23a         24a   
 eigenvalues H         -0.31495    -0.30856    -0.26651    -0.21287    -0.19216
            eV          -8.5703     -8.3964     -7.2522     -5.7926     -5.2291
 occupation              2.0000      2.0000      2.0000      2.0000      2.0000 

    irrep                 25a         26a         27a         28a         29a   
 eigenvalues H          0.00210     0.02686     0.03142     0.03987     0.05743
            eV           0.0571      0.7310      0.8549      1.0850      1.5628
 
 
 ! grave: sending quit signal to master process
 
 
 
 
 ==============================================================================
                           electrostatic moments
 ==============================================================================

 reference point for electrostatic moments:    0.00000   0.00000   0.00000

 
              nuc           elec       ->  total
 ------------------------------------------------------------------------------
                          charge      
 ------------------------------------------------------------------------------
          48.000000     -48.000000       0.000000
 
 ------------------------------------------------------------------------------
                       dipole moment  
 ------------------------------------------------------------------------------
   x     305.616461    -305.155075       0.461386
   y       8.481839      -8.564603      -0.082764
   z      -0.949807       0.681808      -0.267999
 
   | dipole moment | =     0.5400 a.u. =     1.3724 debye 
 
 ------------------------------------------------------------------------------
                     quadrupole moment
 ------------------------------------------------------------------------------
  xx    2133.190520   -2154.153586     -20.963066
  yy      52.097181     -83.078393     -30.981212
  zz     201.186684    -227.035150     -25.848466
  xy       6.573142      -5.921696       0.651446
  xz       1.717199      -2.405314      -0.688115
  yz      18.865816     -19.848736      -0.982920
 
     1/3  trace=     -25.930915
     anisotropy=       8.993319
 
 ==============================================================================
 

    ridft profiling
  --------------------------------------------------------------------
             module   cpu total (s)       %  wall total (s)       %

               RIDFT            88.8  100.00            88.8  100.00
         Ridft_b_scf             5.0    5.68             5.1    5.69
        b_scf_prelim             0.0    0.00             0.0    0.00
        b_scf_molinp             0.0    0.02             0.0    0.02
         b_scf_init0             0.0    0.00             0.0    0.00
        b_scf_auxbas             0.0    0.02             0.0    0.02
      b_scf_symmetry             0.0    0.00             0.0    0.00
         b_scf_cosmo             0.0    0.00             0.0    0.00
        b_scf_params             0.5    0.58             0.5    0.58
          b_scf_ri-j             3.7    4.21             3.7    4.21
    b_scf_ri-j_auxpq             3.7    4.21             3.7    4.21
     ri-j_auxpq_chol             0.0    0.01             0.0    0.02
         b_scf_1elec             0.2    0.19             0.2    0.19
       b_scf_moinput             0.6    0.65             0.6    0.65
     moinput_orthmos             0.6    0.63             0.6    0.63
    b_scf_dft-dstmax             0.0    0.00             0.0    0.00
           Ridft_scf            83.7   94.25            83.7   94.23
          Scf_b_loop             0.0    0.00             0.0    0.00
                noga             0.0    0.00             0.0    0.00
            Scf_loop            83.4   93.95            83.4   93.92
     scf_loop_mkdmat             0.3    0.31             0.3    0.31
       scf_loop_ri-j             5.4    6.11             5.4    6.10
      parlp1.bc.dens             0.9    1.04             0.9    1.04
        parlp1.gs.gp             0.0    0.00             0.0    0.00
        parlp2.bc.gq             0.0    0.00             0.0    0.00
        scf_loop_dft            66.6   74.99            66.5   74.90
      pardft.bc.dens             0.0    0.00             0.0    0.00
        dft_grid_con             0.1    0.13             0.1    0.12
           dft_xcrhf            63.1   71.05            63.0   70.97
          dft_getval             3.6    4.02             3.6    4.05
          funct2 dst             0.0    0.04             0.0    0.05
      funct2 f2loop1             1.3    1.49             1.3    1.51
      funct2 f2loop2             1.0    1.16             1.0    1.13
          funct2 s+c             1.0    1.17             1.1    1.19
        funct2 cmf_2             0.9    1.01             0.9    1.04
          dft_mkdens            29.2   32.89            29.1   32.82
         dft_gga-fun             0.1    0.11             0.1    0.12
          dft_mkfock            30.1   33.91            30.1   33.86
     pardft.red.fock             7.5    8.42             7.5    8.41
     scf_loop_energy             0.0    0.01             0.0    0.01
     scf_loop_mkfock             0.0    0.00             0.0    0.01
       scf_loop_diis             3.1    3.47             3.1    3.47
       scf_loop_diag             3.6    4.06             3.7    4.13
         diag_tritrn             0.7    0.83             0.7    0.83
          diag_rdiag             2.8    3.21             2.9    3.28
     scf_loop_modump             3.8    4.29             3.8    4.29
      scf_loop_ortho             0.5    0.56             0.5    0.56
          Scf_a_loop             0.3    0.30             0.3    0.30
         Ridft_a_scf             0.1    0.07             0.1    0.08
         a_scf_fanal             0.1    0.06             0.1    0.07
 


    ------------------------------------------------------------------------
         total  cpu-time :  1 minutes and 29 seconds
         total wall-time :  1 minutes and 29 seconds
    ------------------------------------------------------------------------


   ****  ridft : all done  ****


    2017-11-20 19:12:44.441 

