
   OpenMP run-time library returned nthreads = 28

 ricc2 (c-14-42) : TURBOMOLE V7.3 ( 22142 ) 4 Jul 2018 at 18:12:42
 Copyright (C) 2018 TURBOMOLE GmbH, Karlsruhe


    2019-04-01 21:41:40.234 



                              R I C C 2 - PROGRAM

                          the quantum chemistry groups
                             at the universities in
                           Karlsruhe, Bochum & Mainz
                                   Germany



   *-----------------------------------------------------------------------*
   |                     program will use 28 thread(s)                     |
   *-----------------------------------------------------------------------*


              +--------------------------------------------------+
              | Atomic coordinate, charge and isotop information |
              +--------------------------------------------------+

                    atomic coordinates            atom    charge  isotop
         -1.60497600   -0.64155967    4.70866205    c      6.000     0
          0.34835960   -0.02087640    4.56592873    h      1.000     0
         -1.66767936   -2.53610960    5.50421116    h      1.000     0
         -2.62823607    0.59881317    5.98746302    h      1.000     0
         -2.95559200   -0.66768390    2.19109105    c      6.000     0
         -5.19585185   -1.23122793    1.99698863    o      8.000     0
         -1.51490560   -0.05169273    0.16694156    n      7.000     0
          0.30460034    0.45421523    0.41330888    h      1.000     0
         -2.61793184   -0.00444367   -2.33218061    c      6.000     0
         -3.57463846   -1.78163612   -2.72138764    h      1.000     0
         -4.00616706    1.50462226   -2.51499782    h      1.000     0
         -1.12371796    0.28264758   -3.70977376    h      1.000     0
 
       center of nuclear mass  :   -2.77743105   -0.51593047    1.32341464
       center of nuclear charge:   -2.68974080   -0.48980300    1.30186719

              +--------------------------------------------------+
              |               basis set information              |
              +--------------------------------------------------+

              we will work with the 1s 3p 5d 7f 9g ... basis set
              ...i.e. with spherical basis functions...

   type   atoms  prim   cont   basis
   ---------------------------------------------------------------------------
    c        3     50     30   cc-pVTZ   [4s3p2d1f|18s5p2d1f]
    h        7     16     14   cc-pVTZ   [3s2p1d|5s2p1d]
    o        1     50     30   cc-pVTZ   [4s3p2d1f|18s5p2d1f]
    n        1     50     30   cc-pVTZ   [4s3p2d1f|18s5p2d1f]
   ---------------------------------------------------------------------------
   total:   12    362    248
   ---------------------------------------------------------------------------

   total number of primitive shells          :   86
   total number of contracted shells         :   92
   total number of cartesian basis functions :  280
   total number of SCF-basis functions       :  248


 symmetry group of the molecule :   c1 

 the group has the following generators :
   c1(z)

    1 symmetry operations found

 there are 1 real representations :   a   


   =========================================================================


     restricted closed shell calculation for the wavefunction models:
               MP2        - Second Order Moeller Plesset PT


     global parameters for ricc2 program:

        hard restart (reuse of interm.) :  disabled
        soft restart (reuse of vectors) :  disabled
        threshold for vector function   :    0.100000E-05
        convergence threshold energy    :    0.100000E-06
        linear dependence threshold     :    0.100000E-13
        global print level              :      1
        maximum number of iterations    :   300
        maximum number DIIS vectors     :    10
        max. dim. of reduced space      :   100
        core memory limit (MB)          : *****


     MP2 energy only: Energy will be calculated directly from T2 amplitudes!

     Scratch Directory : 


   =========================================================================

    der. integral neglect threshold  :  0.10E-07
    integral neglect threshold       :  0.12E-10
    integral storage threshold THIZE :  0.10E-04
    integral storage threshold THIME :         5


                  +------------------------------------------+
                  |     Auxiliary basis set information      |
                  +------------------------------------------+

              we will work with the 1s 3p 5d 7f 9g ... basis set
              ...i.e. with spherical basis functions...

   type   atoms  prim   cont   basis
   ---------------------------------------------------------------------------
    c        3     81     81   cc-pVTZ   [8s6p5d3f1g|8s6p5d3f1g]
    h        7     30     30   cc-pVTZ   [4s3p2d1f|4s3p2d1f]
    o        1     81     81   cc-pVTZ   [8s6p5d3f1g|8s6p5d3f1g]
    n        1     81     81   cc-pVTZ   [8s6p5d3f1g|8s6p5d3f1g]
   ---------------------------------------------------------------------------
   total:   12    615    615
   ---------------------------------------------------------------------------

   total number of primitive shells          :   79
   total number of contracted shells         :  185
   total number of cartesian basis functions :  750
   total number of SCF-basis functions       :  615


 maximum number of shells which are related by symmetry :  1


 The symmetry information takes   1 MB

*---------------------------------------------------------------------*
|               simplified C1 algorithm will be applied               |
*---------------------------------------------------------------------*
  MOs are in ASCII format !


 reading orbital data $scfmo  from file mos
 orbital characterization : scfconv=9



              +--------------------------------------------+
              | list of orbitals that will be kept frozen: |
              +--------------------------------------------+
              |   irrep   index      energy     occ/vir    |
              +--------------------------------------------+
              |   a         1      -20.5055     occupied   |
              |   a         2      -15.5836     occupied   |
              |   a         3      -11.3422     occupied   |
              |   a         4      -11.2564     occupied   |
              |   a         5      -11.2333     occupied   |
              +--------------------------------------------+



   Molecular Orbital Statistic:
   ============================

   -----------------------------
   orbitals in total:
   -----------------------------
    frozen occupied :      5
    active occupied :     15
    active virtual  :    228
    frozen virtual  :      0
    all together    :    248
   -----------------------------


     time in riccmos       cpu:  3.22 sec    wall:  0.13 sec    ratio: 25.6

     total memory allocated for calculation of (Q|P)**(-1/2) : 5 MiB


     calculation of (P|Q) ...
     time in lp2sym        cpu:  1.05 sec    wall:  0.04 sec    ratio: 26.9


     calculation of the Cholesky decomposition of (P|Q)**(-1) ...
     time in invmetri      cpu:  1.64 sec    wall:  0.06 sec    ratio: 27.7

   threshold for RMS(d[D]) in SCF was     :  0.10E-06
   integral neglect threshold             :  0.12E-10
   derivative integral neglect threshold  :  0.10E-07


   =========================================================================

     Energy of reference wave function is  -247.0992020363000
     Maximum orbital residual is           0.5350790843911E-06


     Number of symmetry-nonredundant auxiliary basis functions:      615

     Block lengths for integral files:
        frozen occupied (BOI):        1 MiB
        active occupied (BJI):        1 MiB
        active virtual  (BAI):        2 MiB
        frozen virtual  (BGI):        0 MiB
               general  (BTI):        2 MiB

   =========================================================================




   **************************************************************************
   *                                                                        *
   *          OPTIMIZATION OF THE GROUND STATE CLUSTER AMPLITUDES           *
   *                                                                        *
   **************************************************************************


   Iter.   MP2 energy       Norm(Omega)   Norm(t1)  Norm(t2)     cpu    wall
   ...........................................................................
    1   -248.0493952418     ------          0.00000   0.31224    0.09    0.00
   ...........................................................................


     time in total         cpu:  5.52 sec    wall:  0.24 sec    ratio: 23.4


     **********************************************************************
     *                                                                    *
     *   RHF  energy                             :   -247.0992020363      *
     *   MP2 correlation energy (doubles)        :     -0.9501932055      *
     *                                                                    *
     *   Final MP2 energy                        :   -248.0493952418      *
     *                                                                    *
     *    E(S)   =     -0.6065532753      E(T)   =     -0.3436399302      *
     *    E(OS)  =     -0.7210999187      E(SS)  =     -0.2290932868      *
     *                                                                    *
     *   SCS-MP2 energy                          :   -248.0408863677      *
     *   (computed with  C(OS) =   1.2000  and  C(SS) =   0.3333)         *
     *                                                                    *
     *   SOS-MP2 energy                          :   -248.0366319306      *
     *   (computed with  C(OS) =   1.3000)                                *
     *                                                                    *
     *   Norm of MP1 T2 amplitudes               :      0.3122434321      *
     *                                                                    *
     **********************************************************************



    ------------------------------------------------------------------------
         total  cpu-time :  28.53 seconds
         total wall-time :   1.18 seconds
    ------------------------------------------------------------------------

   ****  ricc2 : all done  ****


    2019-04-01 21:41:41.326 

