STARTING ridft ON 16 PROCESSORS!
RUNNING PROGRAM /sopt/TURBOMOLE/7.3-official/bin/em64t-unknown-linux-gnu_smp/ridft_mpi.
           SMPCPUS    set: Shared-memory Parallelization with  16 CPUs.

           SMP Parallelization Reference:
           C. van Wullen, J. Comput. Chem. 32 (2011) 1195--1201
 operating system is UNIX !

 ridft (c-3-41) : TURBOMOLE V7.3 ( 22118 ) 1 Jul 2018 at 20:38:15
 Copyright (C) 2018 TURBOMOLE GmbH, Karlsruhe


    2019-03-12 12:02:33.869 



                                  r i d f t

                        DFT program with RI approximation 
                                for coulomb part 




                                                 
                                 References:     
                                                 
          TURBOMOLE:                             
              R. Ahlrichs, M. Baer, M. Haeser, H. Horn, and
              C. Koelmel
              Electronic structure calculations on workstation
              computers: the program system TURBOMOLE
              Chem. Phys. Lett. 162: 165 (1989)
          Density Functional:                              
              O. Treutler and R. Ahlrichs                      
              Efficient Molecular Numerical Integration Schemes
              J. Chem. Phys. 102: 346 (1995)                   
          Parallel Version:                                
              Performance of parallel TURBOMOLE for Density    
              Functional Calculations                          
              M. v. Arnim and R. Ahlrichs                      
              J. Comp. Chem. 19: 1746 (1998)                   
          RI-J Method:                                     
              Auxiliary Basis Sets to approximate Coulomb      
              Potentials                                       
              Chem. Phys. Lett. 240: 283 (1995)                
              K. Eichkorn, O. Treutler, H. Oehm, M. Haeser     
              and R. Ahlrichs                                  
              Chem. Phys. Lett. 242: 652 (1995)                
                                                           
              Auxiliary Basis Sets for Main Row Atoms and their
              Use to approximate Coulomb Potentials            
              K. Eichkorn, F. Weigend, O. Treutler and         
              R. Ahlrichs                                      
              Theo. Chem. Acc. 97: 119 (1997)                   
                                                           
              Accurate Coulomb-fitting basis sets for H to Rn 
              F. Weigend                                        
              Phys. Chem. Chem. Phys. 8: 1057 (2006)            
                                                           
          Multipole accelerated RI-J (MARI-J):             
              Fast evaluation of the Coulomb potential for     
              electron densities using multipole accelerated   
              resolution of identity approximation             
              M. Sierka, A. Hogekamp and R. Ahlrichs           
              J. Chem. Phys. 118: 9136 (2003)                  
          RI-JK Method:                                     
              A fully direct RI-HF algorithm: Implementation,
              optimised auxiliary basis sets, demonstration of
              accuracy and efficiency                         
              F. Weigend                                      
              Phys. Chem. Chem. Phys. 4: 4285 (2002)           
          Two-component HF and DFT with spin-orbit coupling:  
              Self-consistent treatment of spin-orbit         
              interactions with efficient Hartree-Fock and    
              density functional methods                      
              M. K. Armbruster, F. Weigend, C. van Wüllen and 
              W. Klopper                                      
              Phys. Chem. Chem. Phys. 10: 1748 (2008)         
          Two-component difference density and DIIS algorithm 
              Efficient two-component self-consistent field   
              procedures and gradients: implementation in     
              TURBOMOLE and application to Au20-              
              A. Baldes, F. Weigend                           
              Mol. Phys. 111: 2617 (2013)                     
          Relativistic all-electron 2c calculations           
              An efficient implementation of two-component    
              relativistic exact-decoupling methods for large 
              molecules                                       
              D. Peng, N. Middendorf, F. Weigend, M. Reiher   
              J. Chem. Phys. 138: 184105 (2013)               
          Finite nucleus model and SNSO approximation         
              Efficient implementation of one- and two-       
              component analytical energy gradients in exact  
              two-component theory                            
              Y. J. Franzke, N. Middendorf, F. Weigend        
              J. Chem. Phys. 148: 104110 (2018)               
                                         




              +--------------------------------------------------+
              |      general information about current run       |
              +--------------------------------------------------+

 
 PBE functional
 exchange:    LDA + PBE
 correlation: LDA (PW) + PBE
 A DFT calculation using the RI-J approximation will be carried out.
 Allocatable memory for RI due to $ricore (MB):                  8000


              +--------------------------------------------------+
              | Atomic coordinate, charge and isotop information |
              +--------------------------------------------------+

                    atomic coordinates            atom    charge  isotop
          5.27110465    2.09460881    0.51246303    c      6.000     0
          3.94145864    0.25531098    0.05933014    o      8.000     0
          4.37834826    4.36688238    1.05628553    o      8.000     0
          2.50036009    4.30471373    1.02907252    h      1.000     0
          8.09948128    2.00786519    0.50875087    c      6.000     0
          8.73741420    0.11564614    0.05989273    h      1.000     0
          8.82040905    3.35023770   -0.86974557    h      1.000     0
          8.80154536    2.57987493    2.35322819    h      1.000     0
 
       center of nuclear mass  :    5.37521656    2.22571331    0.54465382
       center of nuclear charge:    5.48880311    2.24821448    0.55077052

              +--------------------------------------------------+
              |               basis set information              |
              +--------------------------------------------------+

              we will work with the 1s 3p 5d 7f 9g ... basis set
              ...i.e. with spherical basis functions...

   type   atoms  prim   cont   basis
   ---------------------------------------------------------------------------
    c        2     77     57   def2-QZVP   [7s4p3d2f1g|15s8p3d2f1g]
    o        2     77     57   def2-QZVP   [7s4p3d2f1g|15s8p3d2f1g]
    h        4     33     30   def2-QZVP   [4s3p2d1f|7s3p2d1f]
   ---------------------------------------------------------------------------
   total:    8    440    348
   ---------------------------------------------------------------------------

   total number of primitive shells          :   71
   total number of contracted shells         :  108
   total number of cartesian basis functions :  428
   total number of SCF-basis functions       :  348


 integral neglect threshold       :  0.78E-11
 integral storage threshold THIZE :  0.10E-04
 integral storage threshold THIME :         5

 RI-J AUXILIARY BASIS SET information:

              we will work with the 1s 3p 5d 7f 9g ... basis set
              ...i.e. with spherical basis functions...

   type   atoms  prim   cont   basis
   ---------------------------------------------------------------------------
    c        2     70     49   def2-QZVP   [6s4p3d1f1g|12s5p4d2f1g]
    o        2     70     49   def2-QZVP   [6s4p3d1f1g|12s5p4d2f1g]
    h        4     16     11   def2-QZVP   [3s1p1d|5s2p1d]
   ---------------------------------------------------------------------------
   total:    8    344    240
   ---------------------------------------------------------------------------

   total number of primitive shells          :   56
   total number of contracted shells         :   80
   total number of cartesian basis functions :  292
   total number of SCF-basis functions       :  240


 symmetry group of the molecule :   c1 

 the group has the following generators :
   c1(z)

    1 symmetry operations found

 there are 1 real representations :   a   

 maximum number of shells which are related by symmetry :  1


    mo occupation :
   irrep   mo's   occupied
    a      348       16
 
 number of basis functions   :                    348
 number of occupied orbitals :                     16
 
  
           ------------------
           density functional
           ------------------
 PBE functional
 exchange:    LDA + PBE
 correlation: LDA (PW) + PBE

 iterations will be done with small grid
  
 spherical integration : Lebedev's spherical grid
 spherical gridsize    :                     4
    i.e. gridpoints    :                   434
 value for diffuse not defined
 radial integration    : Chebyshev 2nd kind (scaling 3)
 radial gridsize       :                     6
 integration cells     :                     8
 partition function    : becke
 partition sharpness   :                     3
  

 biggest AO integral is expected to be     6.990327543
  
           ------------------------
               RI-J - INFORMATION
           ------------------------
 Contributions to RI integral batches: 
  neglected integral batches:                   443
  direct contribution:                            0
  memory contribution:                  5443
 Memory core needed for (P|Q) and Cholesky      1 MByte
 Memory core minimum needed except of (P|Q)     1 MByte
 Total minimum memory core needed (sum)         2 MByte
  
 ****************************************
 Memory allocated for RI-J   197 MByte
 ****************************************
                                            

          ------------------------
          nuclear repulsion energy  :   121.350375294    
          ------------------------

   .------------------------------.
   |            DFT-D4            |
   |          ==========          |
   |  E. Caldeweyher,  S. Grimme  |
   |   University of Bonn, MCTC   |
   |     02/2018, Version 1.0     |
   '------------------------------'
  This code comes without any warranty

 Cite this work as:
   E. Caldeweyher, C. Bannwarth, and S. Grimme,
   J. Chem. Phys., 2017, 147, 034112.
   E. Caldeweyher, S. Ehlert, and S. Grimme,
   J. Chem. Phys., in preparation.

 Contributions:
   P. Shushkov - GBSA(H2O)
   S. Ehlert   - MBD, DFA fit

number of atoms            :     8
number of electrons        :    24
charge                     :  0
spin                       : 0.0
 Found param_gfn2.xtb file !
========================================================================
    G F N  parametrization, version 3
   Geometries Frequencies Non-covalent interactions
 /sopt/TURBOMOLE/7.3-official/parameter/param_gfn2.xtb
========================================================================
 method parameters:
------------------------------------------------------------------------
k(s)        :               1.8500
k(p)        :               2.2300
k(d)        :               2.2300
k(f)        :               2.0000
kEN (H0ij)  :              -2.0000
D3 a1       :               0.5200
D3 a2       :               5.0000
D3 s8       :               2.7000
D3atm       :               5.0000
alphaj      :               2.0000
AESdamp     :               4.0000
AESrad      :               3.0000
expscalexp  :               5.0000
------------------------------------------------------------------------
------------------------------------------------------------------------
 xTB basis
------------------------------------------------------------------------
  Z AO/shell   Hii/eV     exponent
  1     Wed Apr 25 08:07:45 CEST 2018   EN: 2.200 GM2: 0.406  GM3: 0.0800  RAES: 1.40
     1s    -10.707211    1.230000
  6     Wed Apr 25 08:07:45 CEST 2018   EN: 2.550 GM2: 0.538  GM3: 0.1500  RAES: 3.00
     2s    -13.970922    2.096432
     2p    -10.063292    1.800000
  8     Wed Apr 25 08:07:45 CEST 2018   EN: 3.440 GM2: 0.452  GM3:-0.0517  RAES: 1.80
     2s    -20.229985    2.439742
     2p    -15.503117    2.137023
------------------------------------------------------------------------
 DFT-D4 reference setup
------------------------------------------------------------------------
 C      q(ref)        CN(ref)   cov. CN(ref)  alpha(AIM,ref)
     0.0000000      0.0000000      0.0000000     12.3555336
    -0.1299310      0.9367838      0.9179641     12.6203061
    -0.0788263      1.9884028      1.9096951      9.3103249
    -0.0767301      2.9881158      2.8401678      8.8356702
    -0.0945886      3.9165802      3.7567914      6.6924619
    -0.0285648      3.3673832      3.0308559      8.9184424
     0.0506204      0.9979550      0.8555886      7.7402501
 O      q(ref)        CN(ref)   cov. CN(ref)  alpha(AIM,ref)
     0.0000000      0.0000000      0.0000000      5.1967092
    -0.3306800      0.9547795      0.8033980      6.0646315
    -0.5637321      1.9239773      1.6098510      6.6505011
     0.0000000      0.9835639      0.9794547      5.1987934
 H      q(ref)        CN(ref)   cov. CN(ref)  alpha(AIM,ref)
     0.0000000      0.0000000      0.0000000      5.0540161
     0.0000000      0.8115055      0.8943405      2.7207580
 no old-style atom pair restraing (fixing) potential
------------------------------------------------------------------------
 SCC calculation
------------------------------------------------------------------------

------------------------------------------------------------------------
 Dispersion Energy Calculation
 * damping parameters for pbe-D4
 s6       :    1.0000
 s8       :    0.9516
 a1       :    0.4044
 a2       :    4.6501
========================================================================
 Edisp  /kcal,au:    -2.5778  -0.00410798
------------------------------------------------------------------------
 E(2)   /kcal,au:    -2.5874  -0.00412327
 Emany  /kcal,au:     0.0096   0.00001529
 Eresp  /kcal,au:     0.0000   0.00000000
========================================================================
 nuclear repulsion energy                  =     121.350375294
 empirical dispersive energy correction    =      -0.004107977
 nuclear repulsion + dispersion correction =     121.346267317


         -----------------
         -S,T+V- integrals
         -----------------

 1e-integrals will be neglected if expon. factor < 0.780832E-12
 Difference densities >>NOT<< switched on in parallel ridft!

 DIIS switched on: error vector is FDS-SDF
 Max. Iterations for DIIS is     :   4
 DIIS matrix (see manual) 
    Scaling factor of diagonals  :  1.200
    threshold for scaling factor :  0.000

 scf convergence criterion : increment of total energy < .1000000D-06
                  and increment of one-electron energy < .1000000D-03

  MOs are in ASCII format !


 automatic virtual orbital shift switched on 
      shift if e(lumo)-e(homo) < 0.10000000    


 reading orbital data $scfmo  from file mos
 orbital characterization : expanded
 mo provided and orthogonalized by Cholesky decomposition

 DSCF restart information will be dumped onto file mos


 Starting SCF iterations

          Overall gridpoints after grid construction =         21724

 ITERATION  ENERGY          1e-ENERGY        2e-ENERGY     NORM[dD(SAO)]  TOL
   1  -227.87571958190    -549.39937903     200.17739213    0.000D+00 0.779D-11
                            Exc = -29.2283327202     Coul =  229.405724853    
                              N = 31.999967850    
                            current damping = 0.700
 
          max. resid. norm for Fia-block=  8.486D-01 for orbital      6a         
          max. resid. fock norm         =  7.816D+01 for orbital    324a         

 ITERATION  ENERGY          1e-ENERGY        2e-ENERGY     NORM[dD(SAO)]  TOL
   2  -228.79183826567    -551.30262396     201.16451837    0.000D+00 0.779D-11
                            Exc = -29.1072030486     Coul =  230.271721423    
                              N = 31.999960432    
                            current damping = 0.650
 
          Norm of current diis error:  2.3066    
          max. resid. norm for Fia-block=  1.608D-01 for orbital      2a         
          max. resid. fock norm         =  3.460D-01 for orbital    196a         

 ITERATION  ENERGY          1e-ENERGY        2e-ENERGY     NORM[dD(SAO)]  TOL
   3  -228.90662173509    -552.53706158     202.28417253    0.000D+00 0.779D-11
                            Exc = -29.2595284751     Coul =  231.543701001    
                              N = 31.999958882    
                            current damping = 0.550
 
          Norm of current diis error:  1.0496    
          max. resid. norm for Fia-block=  6.508D-02 for orbital      2a         
          max. resid. fock norm         =  8.335D-02 for orbital    178a         

 ITERATION  ENERGY          1e-ENERGY        2e-ENERGY     NORM[dD(SAO)]  TOL
   4  -228.94004923879    -552.16721433     201.88089778    0.000D+00 0.779D-11
                            Exc = -29.1998389118     Coul =  231.080736689    
                              N = 31.999955272    
                            current damping = 0.600
 
          Norm of current diis error: 0.42653    
          max. resid. norm for Fia-block=  3.156D-02 for orbital      6a         
          max. resid. fock norm         =  5.907D-02 for orbital    186a         

 ITERATION  ENERGY          1e-ENERGY        2e-ENERGY     NORM[dD(SAO)]  TOL
   5  -228.94438462390    -552.58895987     202.29830792    0.000D+00 0.779D-11
                            Exc = -29.2610661431     Coul =  231.559374068    
                              N = 31.999954056    
                            current damping = 0.650
 
          Norm of current diis error: 0.26059    
          max. resid. norm for Fia-block=  1.204D-02 for orbital     15a         
          max. resid. fock norm         =  2.061D-02 for orbital    347a         
          mo-orthogonalization: Cholesky decomposition

 ITERATION  ENERGY          1e-ENERGY        2e-ENERGY     NORM[dD(SAO)]  TOL
   6  -228.94659831782    -552.59418233     202.30131669    0.000D+00 0.779D-11
                            Exc = -29.2566286404     Coul =  231.557945333    
                              N = 31.999954177    
                            current damping = 0.500
 
          Norm of current diis error: 0.10085    
          max. resid. norm for Fia-block=  4.702D-03 for orbital     14a         
          max. resid. fock norm         =  1.087D-02 for orbital    348a         

 ITERATION  ENERGY          1e-ENERGY        2e-ENERGY     NORM[dD(SAO)]  TOL
   7  -228.94690328884    -552.48418223     202.19101163    0.000D+00 0.779D-11
                            Exc = -29.2446108175     Coul =  231.435622445    
                              N = 31.999953289    
                            current damping = 0.550
 
          Norm of current diis error: 0.36566E-01
          max. resid. norm for Fia-block=  1.804D-03 for orbital      5a         
          max. resid. fock norm         =  2.804D-03 for orbital    333a         

 ITERATION  ENERGY          1e-ENERGY        2e-ENERGY     NORM[dD(SAO)]  TOL
   8  -228.94693914389    -552.52305137     202.22984490    0.000D+00 0.779D-11
                            Exc = -29.2502702140     Coul =  231.480115119    
                              N = 31.999953363    
                            current damping = 0.600
 
          Norm of current diis error: 0.91169E-02
          max. resid. norm for Fia-block=  4.326D-04 for orbital      8a         
          max. resid. fock norm         =  7.322D-04 for orbital    333a         

 ITERATION  ENERGY          1e-ENERGY        2e-ENERGY     NORM[dD(SAO)]  TOL
   9  -228.94694187439    -552.53713910     202.24392991    0.000D+00 0.779D-11
                            Exc = -29.2513850828     Coul =  231.495314988    
                              N = 31.999953321    
                            current damping = 0.450
 
          Norm of current diis error: 0.38790E-02
          max. resid. norm for Fia-block=  2.684D-04 for orbital     16a         
          max. resid. fock norm         =  3.341D-04 for orbital    347a         

 ITERATION  ENERGY          1e-ENERGY        2e-ENERGY     NORM[dD(SAO)]  TOL
  10  -228.94694192920    -552.52957001     202.23636077    0.000D+00 0.779D-11
                            Exc = -29.2507019948     Coul =  231.487062761    
                              N = 31.999953322    
                            current damping = 0.500
 
          Norm of current diis error: 0.39809E-02
          max. resid. norm for Fia-block=  1.755D-04 for orbital     15a         
          max. resid. fock norm         =  3.940D-04 for orbital    347a         
          mo-orthogonalization: Cholesky decomposition

 ITERATION  ENERGY          1e-ENERGY        2e-ENERGY     NORM[dD(SAO)]  TOL
  11  -228.94694236828    -552.53059011     202.23738042    0.000D+00 0.779D-11
                            Exc = -29.2509416663     Coul =  231.488322086    
                              N = 31.999953308    
                            current damping = 0.550
 
          Norm of current diis error: 0.15026E-02
          max. resid. norm for Fia-block=  8.461D-05 for orbital      8a         
          max. resid. fock norm         =  1.132D-04 for orbital    332a         

 ITERATION  ENERGY          1e-ENERGY        2e-ENERGY     NORM[dD(SAO)]  TOL
  12  -228.94694240370    -552.53348046     202.24027074    0.000D+00 0.779D-11
                            Exc = -29.2512610903     Coul =  231.491531827    
                              N = 31.999953316    
                            current damping = 0.400
 
          Norm of current diis error: 0.87773E-03
          max. resid. norm for Fia-block=  3.144D-05 for orbital      8a         
          max. resid. fock norm         =  3.993D-05 for orbital    183a         

 ITERATION  ENERGY          1e-ENERGY        2e-ENERGY     NORM[dD(SAO)]  TOL
  13  -228.94694242154    -552.53298616     202.23977642    0.000D+00 0.779D-11
                            Exc = -29.2511394825     Coul =  231.490915906    
                              N = 31.999953309    
                            current damping = 0.450
 
          Norm of current diis error: 0.30796E-03
          max. resid. norm for Fia-block=  7.920D-06 for orbital     11a         
          max. resid. fock norm         =  1.272D-05 for orbital    287a         

 ENERGY CONVERGED !

          Overall gridpoints after grid construction =         79231

 ITERATION  ENERGY          1e-ENERGY        2e-ENERGY     NORM[dD(SAO)]  TOL
  14  -228.94690422562    -552.53278491     202.23961337    0.000D+00 0.779D-11
                            Exc = -29.2510973608     Coul =  231.490710727    
                              N = 32.000002246    
                            current damping = 0.300
 
          Norm of current diis error: 0.62925E-04
          max. resid. norm for Fia-block=  3.239D-06 for orbital     15a         
          max. resid. fock norm         =  5.973D-06 for orbital    347a         

 End of SCF iterations

   convergence criteria satisfied after    14 iterations


                  ------------------------------------------ 
                 |  total energy      =   -228.94690422562  |
                  ------------------------------------------ 
                 :  kinetic energy    =    228.09659748287  :
                 :  potential energy  =   -457.04350170849  :
                 :  virial theorem    =      1.99628600900  :
                 :  wavefunction norm =      1.00000000000  :
                  .......................................... 


 <geterg> : there is no data group $energy 


 <skperg> : $end is missing 


 orbitals $scfmo  will be written to file mos

    irrep                 12a         13a         14a         15a         16a   
 eigenvalues H         -0.37188    -0.35482    -0.34620    -0.28606    -0.23287
            eV         -10.1194     -9.6553     -9.4205     -7.7841     -6.3368
 occupation              2.0000      2.0000      2.0000      2.0000      2.0000 

    irrep                 17a         18a         19a         20a         21a   
 eigenvalues H         -0.03797    -0.01212     0.01885     0.06572     0.06896
            eV          -1.0332     -0.3297      0.5128      1.7883      1.8765
 
 
 
 
 ==============================================================================
                           electrostatic moments
 ==============================================================================

 reference point for electrostatic moments:    0.00000   0.00000   0.00000

 
              nuc           elec       ->  total
 ------------------------------------------------------------------------------
                          charge      
 ------------------------------------------------------------------------------
          32.000000     -32.000000      -0.000000
 
 ------------------------------------------------------------------------------
                       dipole moment  
 ------------------------------------------------------------------------------
   x     175.641700    -175.302464       0.339236
   y      71.942863     -71.277865       0.664998
   z      17.624657     -17.462093       0.162564
 
   | dipole moment | =     0.7640 a.u. =     1.9420 debye 
 
 ------------------------------------------------------------------------------
                     quadrupole moment
 ------------------------------------------------------------------------------
  xx    1075.818110   -1087.270588     -11.452478
  yy     240.015997    -257.120546     -17.104548
  zz      19.439466     -36.809107     -17.369641
  xy     388.860785    -387.342211       1.518574
  xz      95.937144     -95.544261       0.392883
  yz      57.186024     -57.128772       0.057252
 
     1/3  trace=     -15.308889
     anisotropy=       6.395748
 
 ==============================================================================
 


    ------------------------------------------------------------------------
         total  cpu-time :  37.44 seconds
         total wall-time :   8.82 seconds
    ------------------------------------------------------------------------

   ****  ridft : all done  ****


    2019-03-12 12:02:42.666 

