
   OpenMP run-time library returned nthreads = 28
 operating system is UNIX !

 dscf (c-15-25) : TURBOMOLE V7.3 ( 22142 ) 4 Jul 2018 at 18:12:42
 Copyright (C) 2018 TURBOMOLE GmbH, Karlsruhe


    2019-04-01 21:36:41.456 



                             d s c f - program

                   idea & directorship : reinhart ahlrichs
                   program development : marco haeser
                                         michael baer
                           dft version : oliver treutler


                          quantum chemistry group
                          universitaet  karlsruhe
                                  germany




                          References             
                                                 
          TURBOMOLE:                             
              R. Ahlrichs, M. Baer, M. Haeser, H. Horn, and
              C. Koelmel
              Electronic structure calculations on workstation
              computers: the program system TURBOMOLE
              Chem. Phys. Lett. 162: 165 (1989)
          Density Functional:                              
              O. Treutler and R. Ahlrichs                      
              Efficient Molecular Numerical Integration Schemes
              J. Chem. Phys. 102: 346 (1995)                   
          Parallel Version:                                
              Performance of parallel TURBOMOLE for Density    
              Functional Calculations                          
              M. v. Arnim and R. Ahlrichs                      
              J. Comp. Chem. 19: 1746 (1998)                   
                                         




              +--------------------------------------------------+
              | Atomic coordinate, charge and isotop information |
              +--------------------------------------------------+

                    atomic coordinates            atom    charge  isotop
          4.15306097   -4.24319765   -0.43522897    c      6.000     0
          5.38131274   -5.87046327   -0.68640265    h      1.000     0
          2.86620289   -4.09679668   -2.02990323    h      1.000     0
          2.99462692   -4.50548406    1.24097391    h      1.000     0
          5.57929790   -1.79030880   -0.18466355    c      6.000     0
          4.48946365    0.24170399    0.11124628    o      8.000     0
          8.13162461   -1.97456217   -0.30677382    n      7.000     0
          8.88931338   -3.69522202   -0.55152188    h      1.000     0
          9.77236442    0.20234651   -0.09995637    c      6.000     0
          8.56956483    1.84319655    0.15474963    h      1.000     0
         11.03014630    0.02952124    1.51782472    h      1.000     0
         10.89574183    0.44691579   -1.80497913    h      1.000     0
 
       center of nuclear mass  :    6.44405668   -1.50219647   -0.18249721
       center of nuclear charge:    6.51230825   -1.56808988   -0.19339496

              +--------------------------------------------------+
              |               basis set information              |
              +--------------------------------------------------+

              we will work with the 1s 3p 5d 7f 9g ... basis set
              ...i.e. with spherical basis functions...

   type   atoms  prim   cont   basis
   ---------------------------------------------------------------------------
    c        3     50     30   cc-pVTZ   [4s3p2d1f|18s5p2d1f]
    h        7     16     14   cc-pVTZ   [3s2p1d|5s2p1d]
    o        1     50     30   cc-pVTZ   [4s3p2d1f|18s5p2d1f]
    n        1     50     30   cc-pVTZ   [4s3p2d1f|18s5p2d1f]
   ---------------------------------------------------------------------------
   total:   12    362    248
   ---------------------------------------------------------------------------

   total number of primitive shells          :   86
   total number of contracted shells         :   92
   total number of cartesian basis functions :  280
   total number of SCF-basis functions       :  248


 integral neglect threshold       :  0.12E-12
 integral storage threshold THIZE :  0.10E-04
 integral storage threshold THIME :         5


 DENSITY CONVERGENCE CHECK SWITCHED ON !
 SCF CONVERGENCE IF RMS(delta[D]) <     0.1000000000E-06


 symmetry group of the molecule :   c1 

 the group has the following generators :
   c1(z)

    1 symmetry operations found

 there are 1 real representations :   a   

 maximum number of shells which are related by symmetry :  1


    mo occupation :
   irrep   mo's   occupied
    a      248       20
 
 number of basis functions   :                    248
 number of occupied orbitals :                     20
 

 automatic virtual orbital shift switched on 
      shift if e(lumo)-e(homo) < 0.10000000    


          ------------------------
          nuclear repulsion energy  :   180.560840370    
          ------------------------


         -----------------
         -S,T+V- integrals
         -----------------

 1e-integrals will be neglected if expon. factor < 0.119356E-13
 
   Difference densities algorithm switched on.
   The maximal number of linear combinations of
   difference densities is                    20 .

 DIIS switched on: error vector is FDS-SDF
 Max. Iterations for DIIS is     :   5
 DIIS matrix (see manual) 
    Scaling factor of diagonals  :  1.200
    threshold for scaling factor :  0.000

 scf convergence criterion : increment of total energy < .1000000D-08
                  and increment of one-electron energy < .1000000D-05

  MOs are in ASCII format !


 reading orbital data $scfmo  from file mos
 orbital characterization : scfconv=9

 DSCF restart information will be dumped onto file mos

 
                                              current damping :  0.700
 ITERATION  ENERGY          1e-ENERGY        2e-ENERGY     RMS[dD(SAO)]   TOL
   1  -247.04275675475    -694.28083283     266.67723571    0.000D+00 0.119D-12
          max. resid. norm for Fia-block=  1.034D-01 for orbital      1a         
          max. resid. fock norm         =  1.673D-01 for orbital    247a         
          Delta Eig. =    28.7434890563 eV 
 
                                              current damping :  0.650
 ITERATION  ENERGY          1e-ENERGY        2e-ENERGY     RMS[dD(SAO)]   TOL
   2  -247.08716060103    -693.68439830     266.03639733    0.125D-02 0.757D-13
          Norm of current diis error: 0.42544    
          max. resid. norm for Fia-block=  4.664D-02 for orbital      1a         
          max. resid. fock norm         =  7.368D-02 for orbital    245a         
          Delta Eig. =    11.8387079867 eV 
 
                                              current damping :  0.600
 ITERATION  ENERGY          1e-ENERGY        2e-ENERGY     RMS[dD(SAO)]   TOL
   3  -247.09622064554    -693.76396267     266.10690165    0.585D-03 0.583D-13
          Norm of current diis error: 0.19272    
          max. resid. norm for Fia-block=  2.278D-02 for orbital      1a         
          max. resid. fock norm         =  2.493D-02 for orbital      1a         
          Delta Eig. =     5.5451758314 eV 
 
                                              current damping :  0.650
 ITERATION  ENERGY          1e-ENERGY        2e-ENERGY     RMS[dD(SAO)]   TOL
   4  -247.09837839144    -693.76356529     266.10434653    0.320D-03 0.512D-13
          Norm of current diis error: 0.81506E-01
          max. resid. norm for Fia-block=  7.362D-03 for orbital      1a         
          max. resid. fock norm         =  1.213D-02 for orbital    185a         
          Delta Eig. =     1.6487161083 eV 
 
                                              current damping :  0.500
 ITERATION  ENERGY          1e-ENERGY        2e-ENERGY     RMS[dD(SAO)]   TOL
   5  -247.09877393475    -693.74628858     266.08667428    0.121D-03 0.476D-13
          Norm of current diis error: 0.35649E-01
          max. resid. norm for Fia-block=  3.361D-03 for orbital     13a         
          max. resid. fock norm         =  4.040D-03 for orbital     24a         
 mo-orthogonalization: Cholesky decomposition
          Delta Eig. =     0.8066038817 eV 
 
                                              current damping :  0.350
 ITERATION  ENERGY          1e-ENERGY        2e-ENERGY     RMS[dD(SAO)]   TOL
   6  -247.09886237581    -693.74395259     266.08424984    0.644D-04 0.447D-13
          Norm of current diis error: 0.14278E-01
          max. resid. norm for Fia-block=  1.489D-03 for orbital     13a         
          max. resid. fock norm         =  1.730D-03 for orbital     24a         
          Delta Eig. =     0.2821071488 eV 
 
                                              current damping :  0.200
 ITERATION  ENERGY          1e-ENERGY        2e-ENERGY     RMS[dD(SAO)]   TOL
   7  -247.09887947935    -693.74287236     266.08315251    0.291D-04 0.418D-13
          Norm of current diis error: 0.51557E-02
          max. resid. norm for Fia-block=  5.943D-04 for orbital     13a         
          max. resid. fock norm         =  6.673D-04 for orbital     24a         
          Delta Eig. =     0.0855462037 eV 
 
                                              current damping :  0.050
 ITERATION  ENERGY          1e-ENERGY        2e-ENERGY     RMS[dD(SAO)]   TOL
   8  -247.09888228258    -693.74258260     266.08285995    0.123D-04 0.392D-13
          Norm of current diis error: 0.16857E-02
          max. resid. norm for Fia-block=  2.129D-04 for orbital     13a         
          max. resid. fock norm         =  2.401D-04 for orbital     24a         
          Delta Eig. =     0.0136788987 eV 
 
                                              current damping :  0.050
 ITERATION  ENERGY          1e-ENERGY        2e-ENERGY     RMS[dD(SAO)]   TOL
   9  -247.09888266217    -693.74251252     266.08278949    0.464D-05 0.369D-13
          Norm of current diis error: 0.51095E-03
          max. resid. norm for Fia-block=  6.076D-05 for orbital     13a         
          max. resid. fock norm         =  7.030D-05 for orbital     24a         
          Delta Eig. =     0.0037033533 eV 
 
                                              current damping :  0.100
 ITERATION  ENERGY          1e-ENERGY        2e-ENERGY     RMS[dD(SAO)]   TOL
  10  -247.09888269463    -693.74253706     266.08281400    0.134D-05 0.354D-13
          Norm of current diis error: 0.19045E-03
          max. resid. norm for Fia-block=  2.790D-05 for orbital     20a         
          max. resid. fock norm         =  3.579D-05 for orbital    245a         
 mo-orthogonalization: Cholesky decomposition
          Delta Eig. =     0.0020469360 eV 
 
                                              current damping :  0.150
 ITERATION  ENERGY          1e-ENERGY        2e-ENERGY     RMS[dD(SAO)]   TOL
  11  -247.09888269795    -693.74252470     266.08280163    0.388D-06 0.346D-13
          Norm of current diis error: 0.97247E-04
          max. resid. norm for Fia-block=  8.675D-06 for orbital     19a         
          max. resid. fock norm         =  1.450D-05 for orbital    245a         
          Delta Eig. =     0.0007447819 eV 
 
                                              current damping :  0.200
 ITERATION  ENERGY          1e-ENERGY        2e-ENERGY     RMS[dD(SAO)]   TOL
  12  -247.09888269863    -693.74252925     266.08280618    0.156D-06 0.340D-13
          Norm of current diis error: 0.24278E-04
          max. resid. norm for Fia-block=  4.109D-06 for orbital     20a         
          max. resid. fock norm         =  4.177D-06 for orbital     20a         
          Delta Eig. =     0.0000643140 eV 

 DENSITY CONVERGED !

 
                                              current damping :  0.250
 ITERATION  ENERGY          1e-ENERGY        2e-ENERGY     RMS[dD(SAO)]   TOL
  13  -247.09888269871    -693.74252739     266.08280432    0.603D-07 0.340D-13
          Norm of current diis error: 0.99182E-05
          max. resid. norm for Fia-block=  1.804D-06 for orbital     20a         
          max. resid. fock norm         =  1.836D-06 for orbital     20a         
          Delta Eig. =     0.0000307308 eV 

 ENERGY & DENSITY CONVERGED !

 
                                              current damping :  0.300
 ITERATION  ENERGY          1e-ENERGY        2e-ENERGY     RMS[dD(SAO)]   TOL
  14  -247.09888269873    -693.74252816     266.08280509    0.254D-07 0.339D-13
          max. resid. norm for Fia-block=  4.334D-07 for orbital     20a         
          max. resid. fock norm         =  4.775D-07 for orbital     12a         

 convergence criteria satisfied after    14 iterations


                  ------------------------------------------ 
                 |  total energy      =   -247.09888269873  |
                  ------------------------------------------ 
                 :  kinetic energy    =    246.77756703131  :
                 :  potential energy  =   -493.87644973004  :
                 :  virial theorem    =      1.99869964743  :
                 :  wavefunction norm =      1.00000000000  :
                  .......................................... 


 orbitals $scfmo  will be written to file mos

    irrep                 16a         17a         18a         19a         20a   
 eigenvalues H         -0.55549    -0.54295    -0.50073    -0.41649    -0.38857
            eV         -15.1158    -14.7745    -13.6257    -11.3333    -10.5737
 occupation              2.0000      2.0000      2.0000      2.0000      2.0000 

    irrep                 21a         22a         23a         24a         25a   
 eigenvalues H          0.12596     0.15720     0.17917     0.18151     0.21634
            eV           3.4276      4.2776      4.8754      4.9392      5.8869
 
 
 
 
 ==============================================================================
                           electrostatic moments
 ==============================================================================

 reference point for electrostatic moments:    0.00000   0.00000   0.00000

 
              nuc           elec       ->  total
 ------------------------------------------------------------------------------
                          charge      
 ------------------------------------------------------------------------------
          40.000000     -40.000000      -0.000000
 
 ------------------------------------------------------------------------------
                       dipole moment  
 ------------------------------------------------------------------------------
   x     260.492330    -259.473407       1.018923
   y     -62.723595      61.475296      -1.248299
   z      -7.735798       7.540147      -0.195652
 
   | dipole moment | =     1.6232 a.u. =     4.1257 debye 
 
 ------------------------------------------------------------------------------
                     quadrupole moment
 ------------------------------------------------------------------------------
  xx    1926.339111   -1935.354202      -9.015090
  yy     244.063006    -262.847542     -18.784535
  zz      14.180411     -37.212772     -23.032360
  xy    -326.197728     319.291764      -6.905964
  xz     -48.651190      47.500288      -1.150902
  yz      25.713945     -25.226881       0.487063
 
     1/3  trace=     -16.943995
     anisotropy=      17.399638
 
 ==============================================================================
 


    ------------------------------------------------------------------------
         total  cpu-time :  8 minutes and 32 seconds
         total wall-time :  37.26 seconds
    ------------------------------------------------------------------------

   ****  dscf : all done  ****


    2019-04-01 21:37:18.665 

