
OPTIMIZATION CYCLE 15
Sun Nov  1 19:28:24 PST 2015
 operating system is UNIX !
 hostname is         c-9-411.local

 statpt (c-9-411.local) : TURBOMOLE V7.0( ) 6 Jul 2015 at 18:30:05
 Copyright (C) 2015 TURBOMOLE GmbH, Karlsruhe


    2015-11-01 19:28:24.189 



                           this is S T A T P T   


                     hessian and coordinate update for
                          stationary point search 

                     by barbara unterreiner, marek sierka,
                           and reinhart ahlrichs

                          quantum chemistry group
                          universitaet  karlsruhe
                                  germany


  Keyword $statpt not found - using default options
 
        ***************  Stationary point options ******************
        ************************************************************
           Maximum allowed trust radius:           3.000000E-01
           Minimum allowed trust radius:           1.000000E-03
           Initial trust radius:                   1.500000E-01
           GDIIS used if gradient norm <           1.000000E-02
           Number of previous steps for GDIIS:       5
           Hessian update method:                  BFGS
                        *** Convergence criteria ***                
           Threshold for energy change:            1.000000E-07
           Threshold for max displacement element: 1.000000E-03
           Threshold for max gradient element :    1.000000E-04
           Threshold for RMS of displacement:      5.000000E-04
           Threshold for RMS of gradient:          5.000000E-04
        ************************************************************
 
     Number of symmetry restricted degrees of freedom:    63
     Constituted by:     3 translational degrees of freedom
                         3 rotational degrees of freedom
                      57 internal degrees of freedom

  *************************************************************************
   ATOM                      CARTESIAN COORDINATES
    1 c       1.89398973562275      0.47558152420747     -0.20404050312757
    2 c       0.02096892241333     -1.16888040367056      0.67680587016933
    3 c       0.42778377551368     -3.75538524489311      0.76790653926326
    4 c       2.72185683404122     -4.74972837519245     -0.03354060393346
    5 c       4.60508107884820     -3.15013924550502     -0.93165967892462
    6 c       4.18634256394604     -0.56270756494285     -1.01289119688172
    7 c       1.50340231754472      3.24884706610682     -0.26160742562312
    8 o      -2.26007090452377     -0.29010439649655      1.61749864002591
    9 o      -0.36301757732907      4.37563125949743      0.43502407320749
   10 o       3.54311293298460      4.49226510832630     -1.19777985605637
   11 c      -3.91178456761475      0.66626593693685     -0.14648948308192
   12 h       3.08057167322736      6.26010154112340     -1.15226236769167
   13 o      -3.57845138954165      0.47554509293267     -2.38455080140249
   14 c      -6.08765604238546      1.91660643514294      1.15403835468883
   15 h      -1.07064859007083     -4.95416277168272      1.46626808236348
   16 h       3.03052093222233     -6.76855020048435      0.03733081065740
   17 h       6.39102579746002     -3.91196620945193     -1.56512103327644
   18 h       5.64167690460846      0.68859943698145     -1.70195579585235
   19 h      -6.80933012309671      0.71988148975573      2.66309172823838
   20 h      -7.56284880439860      2.32209168350344     -0.21295227922699
   21 h      -5.40252546947195      3.67020783780496      1.98688692646449
  *************************************************************************
   ATOM                      CARTESIAN GRADIENTS  
    1 c       0.00001504719844     -0.00000331197298     -0.00000884199348
    2 c       0.00000650179382      0.00001699258624     -0.00002781523072
    3 c      -0.00000537547811      0.00001005927689      0.00000977901660
    4 c       0.00000900270679     -0.00000611607385      0.00000976840076
    5 c      -0.00000091523468      0.00000275584380      0.00000074168861
    6 c      -0.00000467051771     -0.00000061465890      0.00000265031198
    7 c      -0.00003707168838     -0.00001452204210      0.00001577001071
    8 o      -0.00000035306206     -0.00001528689685      0.00004105377107
    9 o       0.00001147860892     -0.00000162535882     -0.00000576919595
   10 o       0.00000642945851      0.00001324689551     -0.00000744480427
   11 c      -0.00000216413417      0.00000481706964     -0.00003891664054
   12 h       0.00000536614101     -0.00000108811759      0.00000234916322
   13 o      -0.00000563269944     -0.00000494807233      0.00001250369542
   14 c       0.00002183393052     -0.00000155699384      0.00000342547093
   15 h      -0.00000316379702     -0.00000179570034     -0.00000401181866
   16 h      -0.00000360424458     -0.00000230818609     -0.00000839042017
   17 h       0.00000331718634     -0.00000087672565      0.00000394429793
   18 h      -0.00000019408795     -0.00000143639969     -0.00000320449088
   19 h      -0.00000335334567     -0.00000300476933     -0.00000003003329
   20 h      -0.00000061335525      0.00000573076526     -0.00000082422962
   21 h      -0.00001197558289      0.00000506973454      0.00000360602539
  *************************************************************************

  norm of actual CARTESIAN gradient:  9.36294E-05
  norm of actual INTERNAL  gradient:  7.63532E-05

  ENERGY =    -649.5343249998 a.u.; # of cycle =   15

  Approximate Hessian read from $hessapprox data section

  Hessian updated according to BFGS formula
  Number of zero Hessian eigenvalues:   0
  Number of structures for GDIIS interpolation:    5
  GDIIS step:     0.001343

  Transforming internal coordinate displacements to Cartesian space
      Iteration   1 residual norm     1.342624E-03
      Iteration   2 residual norm     1.034501E-06
      Iteration   3 residual norm     2.066317E-13
      Transformation converged
      Residual norm:    2.066317E-13 after    3 iterations

      ****************************************************************** 
                          CONVERGENCE INFORMATION

                               Converged?     Value      Criterion
             Energy change         yes      0.0000001   0.0000001
             RMS of displacement   yes      0.0001778   0.0005000
             RMS of gradient       yes      0.0000101   0.0005000
             MAX displacement      yes      0.0009191   0.0010000
             MAX gradient          yes      0.0000299   0.0001000
      ****************************************************************** 


    ------------------------------------------------------------------------
         total  cpu-time :   0.05 seconds
         total wall-time :   0.37 seconds
    ------------------------------------------------------------------------


   ****  statpt : all done  ****


    2015-11-01 19:28:24.500 

fine, there is no data group "$actual step"
next step = ridft
 operating system is UNIX !
 hostname is         c-9-411.local

 ridft (c-9-411.local) : TURBOMOLE V7.0( ) 28 Sep 2015 at 09:54:12
 Copyright (C) 2015 TURBOMOLE GmbH, Karlsruhe


    2015-11-01 19:28:24.601 



                                  r i d f t

                        DFT program with RI approximation 
                                for coulomb part 




                                                 
                                 References:     
                                                 
          TURBOMOLE:                             
              R. Ahlrichs, M. Baer, M. Haeser, H. Horn, and
              C. Koelmel
              Electronic structure calculations on workstation
              computers: the program system TURBOMOLE
              Chem. Phys. Lett. 162: 165 (1989)
          Density Functional:                              
              O. Treutler and R. Ahlrichs                      
              Efficient Molecular Numerical Integration Schemes
              J. Chem. Phys. 102: 346 (1995)                   
          Parallel Version:                                
              Performance of parallel TURBOMOLE for Density    
              Functional Calculations                          
              M. v. Arnim and R. Ahlrichs                      
              J. Comp. Chem. 19: 1746 (1998)                   
          RI-J Method:                                     
              Auxiliary Basis Sets to approximate Coulomb      
              Potentials                                       
              Chem. Phys. Lett. 240: 283 (1995)                
              K. Eichkorn, O. Treutler, H. Oehm, M. Haeser     
              and R. Ahlrichs                                  
              Chem. Phys. Lett. 242: 652 (1995)                
                                                           
              Auxiliary Basis Sets for Main Row Atoms and their
              Use to approximate Coulomb Potentials            
              K. Eichkorn, F. Weigend, O. Treutler and         
              R. Ahlrichs                                      
              Theo. Chem. Acc. 97: 119 (1997)                   
                                                           
              Accurate Coulomb-fitting basis sets for H to Rn 
              F. Weigend                                        
              Phys. Chem. Chem. Phys. 8: 1057 (2006)            
                                                           
          Multipole accelerated RI-J (MARI-J):             
              Fast evaluation of the Coulomb potential for     
              electron densities using multipole accelerated   
              resolution of identity approximation             
              M. Sierka, A. Hogekamp and R. Ahlrichs           
              J. Chem. Phys. 118: 9136 (2003)                  
          RI-JK Method:                                     
              A fully direct RI-HF algorithm: Implementation,
              optimised auxiliary basis sets, demonstration of
              accuracy and efficiency                         
              F. Weigend                                      
              Phys. Chem. Chem. Phys. 4: 4285 (2002)           
          Two-component HF and DFT with spin-orbit coupling:  
              Self-consistent treatment of spin-orbit         
              interactions with efficient Hartree-Fock and    
              density functional methods                      
              M. K. Armbruster, F. Weigend, C. van Wüllen and 
              W. Klopper                                      
              Phys. Chem. Chem. Phys. 10: 1748 (2008)         
          Relativistic all-electron 2c calculations           
              An efficient implementation of two-component    
              relativistic exact-decoupling methods for large 
              molecules                                       
              D. Peng, N. Middendorf, F. Weigend, M. Reiher   
              J. Chem. Phys. 138, 184105 (2013)               
                                         


 


              +--------------------------------------------------+
              |      general information about current run       |
              +--------------------------------------------------+

 

 DENSITY CONVERGENCE CHECK SWITCHED ON !
 SCF CONVERGENCE IF RMS(delta[D]) <     0.1000000000E-06

 Slater Dirac exchange with PW LDA corr. functional
 A DFT calculation using the RI-J approximation will be carried out.
 Allocatable memory for RI due to $ricore (MB):         500


              +--------------------------------------------------+
              | Atomic coordinate, charge and isotop information |
              +--------------------------------------------------+

                    atomic coordinates            atom    charge  isotop
          1.89415963    0.47573763   -0.20370358    c      6.000     0
          0.02107690   -1.16864554    0.67718002    c      6.000     0
          0.42774049   -3.75518242    0.76814511    c      6.000     0
          2.72158297   -4.74963357   -0.03379177    c      6.000     0
          4.60475246   -3.15016047   -0.93221769    c      6.000     0
          4.18629151   -0.56267622   -1.01301910    c      6.000     0
          1.50376840    3.24902308   -0.26132900    c      6.000     0
         -2.25994731   -0.28966702    1.61769403    o      8.000     0
         -0.36287998    4.37588560    0.43461049    o      8.000     0
          3.54387927    4.49231490   -1.19672638    o      8.000     0
         -3.91181781    0.66604730   -0.14645488    c      6.000     0
          3.08131626    6.26015657   -1.15153682    h      1.000     0
         -3.57836078    0.47506376   -2.38449140    o      8.000     0
         -6.08790078    1.91630387    1.15377884    c      6.000     0
         -1.07053371   -4.95386235    1.46699132    h      1.000     0
          3.03027410   -6.76843587    0.03732687    h      1.000     0
          6.39043703   -3.91211263   -1.56623635    h      1.000     0
          5.64161928    0.68856723   -1.70220992    h      1.000     0
         -6.80871901    0.72026233    2.66376724    h      1.000     0
         -7.56356594    2.32034747   -0.21311596    h      1.000     0
         -5.40317297    3.67066635    1.98533892    h      1.000     0
 
       center of nuclear mass  :    0.10621778    0.32100499   -0.12669785
       center of nuclear charge:    0.08720327    0.29765158   -0.11339844

              +--------------------------------------------------+
              |               basis set information              |
              +--------------------------------------------------+

              we will work with the 1s 3p 5d 7f 9g ... basis set
              ...i.e. with spherical basis functions...

   type   atoms  prim   cont   basis
   ---------------------------------------------------------------------------
    c        9     77     57   def2-QZVP   [7s4p3d2f1g|15s8p3d2f1g]
    o        4     77     57   def2-QZVP   [7s4p3d2f1g|15s8p3d2f1g]
    h        8     33     30   def2-QZVP   [4s3p2d1f|7s3p2d1f]
   ---------------------------------------------------------------------------
   total:   21   1265    981
   ---------------------------------------------------------------------------

   total number of primitive shells          :   71
   total number of contracted shells         :  301
   total number of cartesian basis functions : 1216
   total number of SCF-basis functions       :  981


 integral neglect threshold       :  0.27E-13
 integral storage threshold THIZE :  0.10E-04
 integral storage threshold THIME :         5

 RI-J AUXILIARY BASIS SET information:

              we will work with the 1s 3p 5d 7f 9g ... basis set
              ...i.e. with spherical basis functions...

   type   atoms  prim   cont   basis
   ---------------------------------------------------------------------------
    c        9     70     49   def2-QZVP   [6s4p3d1f1g|12s5p4d2f1g]
    o        4     70     49   def2-QZVP   [6s4p3d1f1g|12s5p4d2f1g]
    h        8     16     11   def2-QZVP   [3s1p1d|5s2p1d]
   ---------------------------------------------------------------------------
   total:   21   1038    725
   ---------------------------------------------------------------------------

   total number of primitive shells          :   56
   total number of contracted shells         :  235
   total number of cartesian basis functions :  889
   total number of SCF-basis functions       :  725


 symmetry group of the molecule :   c1 

 the group has the following generators :
   c1(z)

    1 symmetry operations found

 there are 1 real representations :   a   

 maximum number of shells which are related by symmetry :  1


    mo occupation :
   irrep   mo's   occupied
    a      981       47
 
 number of basis functions   :          981
 number of occupied orbitals :           47
 
  
           ------------------
           density functional
           ------------------
 Slater Dirac exchange with PW LDA corr. functional
 iterations will be done with small grid
  
 spherical integration : Lebedev's spherical grid
 spherical gridsize    :           5
    i.e. gridpoints    :         590
 value for diffuse not defined
 radial integration    : Chebyshev 2nd kind (scaling 3)
 radial gridsize       :           8
 integration cells     :          21
 partition function    : becke
 partition sharpness   :           3
  

 biggest AO integral is expected to be     6.990327543
  
           ------------------------
               RI-J - INFORMATION
           ------------------------
 Contributions to RI integral batches: 
  neglected integral batches:       13320
  direct contribution:              23479
  memory contribution:        8652
 Memory core needed for (P|Q) and Cholesky      5 MByte
 Memory core minimum needed except of (P|Q)     1 MByte
 Total minimum memory core needed (sum)         5 MByte
  
 ****************************************
 Memory allocated for RI-J   265 MByte
 ****************************************
                                            

          ------------------------
          nuclear repulsion energy  :   790.386277595    
          ------------------------

 
          -----------------
          -S,T+V- integrals
          -----------------

 1e-integrals will be neglected if expon. factor < 0.274832E-14
 
   Difference densities algorithm switched on.
   The maximal number of linear combinations of
   difference densities is          20 .

 automatic virtual orbital shift switched on 
      shift if e(lumo)-e(homo) < 0.10000000    


 DIIS switched on: error vector is FDS-SDF
 Max. Iterations for DIIS is     :   4
 DIIS matrix (see manual) 
    Scaling factor of diagonals  :  1.200
    threshold for scaling factor :  0.000

 scf convergence criterion : increment of total energy < .1000000D-08
                  and increment of one-electron energy < .1000000D-05

  MOs are in ASCII format !


 reading orbital data $scfmo  from file mos . 

 orbital characterization : scfconv=9
 

 DSCF restart information will be dumped onto file mos


 Starting SCF iterations

          Overall gridpoints after grid construction =        107356

 ITERATION  ENERGY          1e-ENERGY        2e-ENERGY     RMS[dD(SAO)]   TOL
   1  -643.71584359928    -2452.6292972     1018.5271760    0.000D+00 0.274D-13
                            Exc = -80.5957719214     Coul =  1099.12294795    
                              N = 94.000012587    
                            current damping = 0.700
 
          max. resid. norm for Fia-block=  1.514D-04 for orbital     37a         
          max. resid. fock norm         =  9.662D-03 for orbital    976a         

 ITERATION  ENERGY          1e-ENERGY        2e-ENERGY     RMS[dD(SAO)]   TOL
   2  -643.71584390558    -2452.6293237     1018.5272022    0.966D-06 0.174D-13
                            Exc = -80.5957724040     Coul =  1099.12297457    
                              N = 94.000012590    
                            current damping = 0.650
 
          Norm of current diis error: 0.10930E-02
          max. resid. norm for Fia-block=  6.302D-05 for orbital     37a         
          max. resid. fock norm         =  3.978D-03 for orbital    976a         

 ITERATION  ENERGY          1e-ENERGY        2e-ENERGY     RMS[dD(SAO)]   TOL
   3  -643.71584395472    -2452.6292681     1018.5271465    0.424D-06 0.134D-13
                            Exc = -80.5957793066     Coul =  1099.12292583    
                              N = 94.000012592    
                            current damping = 0.600
 
          Norm of current diis error: 0.52016E-03
          max. resid. norm for Fia-block=  2.632D-05 for orbital     42a         
          max. resid. fock norm         =  1.567D-03 for orbital    976a         

 ITERATION  ENERGY          1e-ENERGY        2e-ENERGY     RMS[dD(SAO)]   TOL
   4  -643.71584395948    -2452.6294038     1018.5272822    0.233D-06 0.128D-13
                            Exc = -80.5957600342     Coul =  1099.12304225    
                              N = 94.000012591    
                            current damping = 0.650
 
          Norm of current diis error: 0.48825E-03
          max. resid. norm for Fia-block=  1.314D-05 for orbital     43a         
          max. resid. fock norm         =  5.877D-04 for orbital    976a         

 ITERATION  ENERGY          1e-ENERGY        2e-ENERGY     RMS[dD(SAO)]   TOL
   5  -643.71584396644    -2452.6293057     1018.5271841    0.118D-06 0.123D-13
                            Exc = -80.5957746661     Coul =  1099.12295879    
                              N = 94.000012592    
                            current damping = 0.700
 
          Norm of current diis error: 0.91967E-04
          max. resid. norm for Fia-block=  3.952D-06 for orbital     37a         
          max. resid. fock norm         =  2.315D-04 for orbital    976a         
          mo-orthogonalization: Cholesky decomposition

 DENSITY CONVERGED !


 ITERATION  ENERGY          1e-ENERGY        2e-ENERGY     RMS[dD(SAO)]   TOL
   6  -643.71584400278    -2452.6293422     1018.5272206    0.290D-07 0.121D-13
                            Exc = -80.5957716347     Coul =  1099.12299220    
                              N = 94.000012602    
                            current damping = 0.750
 
          Norm of current diis error: 0.47199E-04
          max. resid. norm for Fia-block=  1.589D-06 for orbital     32a         
          max. resid. fock norm         =  9.533D-05 for orbital    976a         

 DENSITY CONVERGED !


 ITERATION  ENERGY          1e-ENERGY        2e-ENERGY     RMS[dD(SAO)]   TOL
   7  -643.71584400282    -2452.6293014     1018.5271798    0.139D-07 0.118D-13
                            Exc = -80.5957737526     Coul =  1099.12295355    
                              N = 94.000012602    
                            current damping = 0.800
 
          Norm of current diis error: 0.18874E-04
          max. resid. norm for Fia-block=  7.698D-07 for orbital     42a         
          max. resid. fock norm         =  4.086D-05 for orbital    976a         

 ENERGY & DENSITY CONVERGED !

          Overall gridpoints after grid construction =        339910

 ITERATION  ENERGY          1e-ENERGY        2e-ENERGY     RMS[dD(SAO)]   TOL
   8  -643.71583007820    -2452.6293224     1018.5272147    0.657D-08 0.118D-13
                            Exc = -80.5957601888     Coul =  1099.12297493    
                              N = 93.999996074    
                            current damping = 0.850
 
          Norm of current diis error: 0.12901E-04
          max. resid. norm for Fia-block=  4.488D-07 for orbital     42a         
          max. resid. fock norm         =  1.816D-05 for orbital    976a         

 End of SCF iterations

   convergence criteria satisfied after    8 iterations


                  ------------------------------------------ 
                 |  total energy      =   -643.71583007820  |
                  ------------------------------------------ 
                 :  kinetic energy    =    639.41380643781  :
                 :  potential energy  =  -1283.12963651601  :
                 :  virial theorem    =      1.99331689009  :
                 :  wavefunction norm =      1.00000000000  :
                  .......................................... 


 orbitals $scfmo  will be written to file mos

    irrep                 43a         44a         45a         46a         47a   
 eigenvalues H         -0.28786    -0.26221    -0.25260    -0.24670    -0.24164
            eV          -7.8331     -7.1350     -6.8737     -6.7131     -6.5754
 occupation              2.0000      2.0000      2.0000      2.0000      2.0000 

    irrep                 48a         49a         50a         51a         52a   
 eigenvalues H         -0.10442    -0.06756    -0.04115    -0.01092    -0.00711
            eV          -2.8415     -1.8384     -1.1197     -0.2972     -0.1934
 
 
 
 
 ==============================================================================
                           electrostatic moments
 ==============================================================================

 reference point for electrostatic moments:    0.00000   0.00000   0.00000

 
              nuc           elec       ->  total
 ------------------------------------------------------------------------------
                          charge      
 ------------------------------------------------------------------------------
          94.000000     -94.000000       0.000000
 
 ------------------------------------------------------------------------------
                       dipole moment  
 ------------------------------------------------------------------------------
   x       8.197107      -7.669604       0.527503
   y      27.979249     -28.319788      -0.340539
   z     -10.659453      11.110729       0.451276
 
   | dipole moment | =     0.7732 a.u. =     1.9653 debye 
 
 ------------------------------------------------------------------------------
                     quadrupole moment
 ------------------------------------------------------------------------------
  xx    1097.270747   -1146.096973     -48.826225
  yy     840.795725    -888.109275     -47.313550
  zz     125.747592    -185.084649     -59.337056
  xy    -192.445168     192.534598       0.089431
  xz    -141.121982     136.402059      -4.719923
  yz     -34.714846      33.456428      -1.258418
 
     1/3  trace=     -51.825610
     anisotropy=      14.151788
 
 ==============================================================================
 
 


    ------------------------------------------------------------------------
         total  cpu-time :  2 minutes and 21 seconds
         total wall-time :  2 minutes and 21 seconds
    ------------------------------------------------------------------------


   ****  ridft : all done  ****


    2015-11-01 19:30:45.462 

fine, there is no data group "$actual step"
next step = rirpa
 
 
    *************************************************************************
    *************************** PROGRAM RIRPA *******************************
    ******                                                             ******
    ******              H. Eshuis, J. E. Bates and F. Furche           ******
    ******                                                             ******
    ****** Nov 2011                                                    ******
    ****** Copyright TURBOMOLE GmbH                                    ******
    *************************************************************************
    
    
                                References:                                  
    
                   RIRPA:                                                    
                     H. Eshuis, J. Yarkony and F. Furche                     
                     Fast computation of molecular random phase              
                     approximation correlation energies using resolution     
                     of the identity imaginary frequency integration         
                     J. Chem. Phys. 132: 234114 (2010)                       
    
                     H. Eshuis, J. E. Bates and F. Furche                    
                     Electron correlation methods based on                   
                     the random phase approximation                          
                     Theor. Chem. Acc.  131: 1084 (2012)                     
    
                   TWO-COMPONENT RIRPA:                                      
                     M. Kuehn                                                
                     Correlation energies from the                           
                     two-component random-phase approximation                
                     J. Chem. Theory Comput. 10: 623 (2014)                  
    
                   RIRPA GRADIENTS:                                          
                     Asbjoern M. Burow, Jefferson E. Bates, Filipp Furche*,  
                     and Henk Eshuis                                         
                     Analytical First-Order Molecular Properties and Forces  
                     within the Adiabatic Connection Random Phase            
                     Approximation                                           
                     J. Chem. Theory Comput. (2013, ASAP),                   
                     DOI: 10.1021/ct4008553                                  
    
    
    
 hostname is         c-9-411.local

 rirpa (c-9-411.local) : TURBOMOLE V7.0( ) 28 Sep 2015 at 09:54:12
 Copyright (C) 2015 TURBOMOLE GmbH, Karlsruhe


    2015-11-01 19:30:45.528 

 number of mkl threads =           8
 
                FOUND RI-J FLAG
 
  HF exact exchange energy will be computed using RI-J.


              +--------------------------------------------------+
              | Atomic coordinate, charge and isotop information |
              +--------------------------------------------------+

                    atomic coordinates            atom    charge  isotop
          1.89415963    0.47573763   -0.20370358    c      6.000     0
          0.02107690   -1.16864554    0.67718002    c      6.000     0
          0.42774049   -3.75518242    0.76814511    c      6.000     0
          2.72158297   -4.74963357   -0.03379177    c      6.000     0
          4.60475246   -3.15016047   -0.93221769    c      6.000     0
          4.18629151   -0.56267622   -1.01301910    c      6.000     0
          1.50376840    3.24902308   -0.26132900    c      6.000     0
         -2.25994731   -0.28966702    1.61769403    o      8.000     0
         -0.36287998    4.37588560    0.43461049    o      8.000     0
          3.54387927    4.49231490   -1.19672638    o      8.000     0
         -3.91181781    0.66604730   -0.14645488    c      6.000     0
          3.08131626    6.26015657   -1.15153682    h      1.000     0
         -3.57836078    0.47506376   -2.38449140    o      8.000     0
         -6.08790078    1.91630387    1.15377884    c      6.000     0
         -1.07053371   -4.95386235    1.46699132    h      1.000     0
          3.03027410   -6.76843587    0.03732687    h      1.000     0
          6.39043703   -3.91211263   -1.56623635    h      1.000     0
          5.64161928    0.68856723   -1.70220992    h      1.000     0
         -6.80871901    0.72026233    2.66376724    h      1.000     0
         -7.56356594    2.32034747   -0.21311596    h      1.000     0
         -5.40317297    3.67066635    1.98533892    h      1.000     0
 
       center of nuclear mass  :    0.10621778    0.32100499   -0.12669785
       center of nuclear charge:    0.08720327    0.29765158   -0.11339844
              +-------------------------------------------------+
              |        Rotational Constants Section             |
              +-------------------------------------------------+
                                   Center of Mass [a.u]:
               0.10621777600181         0.32100498860924        -0.12669784998654
                     Principal Moments of Inertia [a.u.]
            1556.69603432674785      2353.60016408397723      3528.21914145090614
                       Rotational constants A,B,C [a.u.]
               0.00032119308393         0.00021244050184         0.00014171455342
                     Rotational constants A,B,C [cm**-1]
               0.03867144593694         0.02557770323539         0.01706234338578
                        Rotational constants A,B,C [MHz]
            1159.34078318493539       766.80025229334615       511.51618628628972

   * BASIS SET information:

              +--------------------------------------------------+
              |               basis set information              |
              +--------------------------------------------------+

              we will work with the 1s 3p 5d 7f 9g ... basis set
              ...i.e. with spherical basis functions...

   type   atoms  prim   cont   basis
   ---------------------------------------------------------------------------
    c        9     77     57   def2-QZVP   [7s4p3d2f1g|15s8p3d2f1g]
    o        4     77     57   def2-QZVP   [7s4p3d2f1g|15s8p3d2f1g]
    h        8     33     30   def2-QZVP   [4s3p2d1f|7s3p2d1f]
   ---------------------------------------------------------------------------
   total:   21   1265    981
   ---------------------------------------------------------------------------

   total number of primitive shells          :   71
   total number of contracted shells         :  301
   total number of cartesian basis functions : 1216
   total number of SCF-basis functions       :  981


   * AUXILIARY BASIS SET information:

              +--------------------------------------------------+
              |               basis set information              |
              +--------------------------------------------------+

              we will work with the 1s 3p 5d 7f 9g ... basis set
              ...i.e. with spherical basis functions...

   type   atoms  prim   cont   basis
   ---------------------------------------------------------------------------
    c        9    141    141   def2-QZVP   [9s8p7d5f3g1h|9s8p7d5f3g1h]
    o        4    141    141   def2-QZVP   [9s8p7d5f3g1h|9s8p7d5f3g1h]
    h        8     56     56   def2-QZVP   [6s4p3d2f1g|6s4p3d2f1g]
   ---------------------------------------------------------------------------
   total:   21   2281   2281
   ---------------------------------------------------------------------------

   total number of primitive shells          :   82
   total number of contracted shells         :  557
   total number of cartesian basis functions : 3051
   total number of SCF-basis functions       : 2281


   * RIJ AUXILIARY BASIS SET information:

              +--------------------------------------------------+
              |               basis set information              |
              +--------------------------------------------------+

              we will work with the 1s 3p 5d 7f 9g ... basis set
              ...i.e. with spherical basis functions...

   type   atoms  prim   cont   basis
   ---------------------------------------------------------------------------
    c        9     70     49   def2-QZVP   [6s4p3d1f1g|12s5p4d2f1g]
    o        4     70     49   def2-QZVP   [6s4p3d1f1g|12s5p4d2f1g]
    h        8     16     11   def2-QZVP   [3s1p1d|5s2p1d]
   ---------------------------------------------------------------------------
   total:   21   1038    725
   ---------------------------------------------------------------------------

   total number of primitive shells          :   56
   total number of contracted shells         :  235
   total number of cartesian basis functions :  889
   total number of SCF-basis functions       :  725


 reading orbital data $scfmo  from file mos . 

 orbital characterization : scfconv=9
 

 integral neglect threshold       :  0.32E+02

 scfconv           9

 MAXIMUM CORE MEMORY WHICH CAN BE ALLOCATED DYNAMICALLY = 10000 MiB
              ( or 1310720000 double words )


 there are 1 real representations :   a   

 maximum number of shells which are related by symmetry :  1


         --------------------------------------------------------------
                   checking mo's by calculating trace(D*S)

              number of electrons : 
                 from trace(D*S)         :   93.999999999988
                 from occupation numbers :   94.000000000000

              molecular charge           :    0.000000000000
         --------------------------------------------------------------

 time elapsed for calculating density matrices :   0.272 sec
 all orbitals will be active in the correlation treatment

     total memory allocated for calculation of (Q|P)**(-1/2) : 60 MiB


     calculation of (P|Q) ...
     time in lp2sym        cpu:  0.89 sec    wall:  0.13 sec    ratio:  7.0


     calculation of the Cholesky decomposition of (P|Q)**(-1) ...
     time in invmetri      cpu:  5.02 sec    wall:  0.63 sec    ratio:  7.9

   threshold for RMS(d[D]) in SCF was     :  0.10E-06
   integral neglect threshold             :  0.11E-13
   derivative integral neglect threshold  :  0.10E-06


 setting up bound for integral derivative estimation

 increment for numerical differentiation : 0.00050000
 total memory allocated for calculation of (Q|P)**(-1/2) : 60 MiB
 Dividing biap into          306  block chunks,
 using                    16 MB per block
 Reserved                   4973 MB for BLAS routines
 Estimated total memory usage:                   9988 MB
 number of passes:            1
 
 Number of eigenvalues < 6e-3:            0
 
 
            -----------------------------
            Complex frequency integration
            -----------------------------
 
 Number of Clenshaw-Curtis nodes:          100
 Optimized scaling parameter    :    6.00049944742033     
 Sensitivity measure            :  -1.851973016108593E-005
 
 Allocatable memory for RI due to $ricore (MB):         500

 there are 1 real representations :   a   

 maximum number of shells which are related by symmetry :  1

  
           ------------------------
               RI-J - INFORMATION
           ------------------------
 Contributions to RI integral batches: 
  neglected integral batches:        9343
  direct contribution:              26169
  memory contribution:        9939
 
          -----------------
          -S,T+V- integrals
          -----------------

 1e-integrals will be neglected if expon. factor < 0.109254E-13

          ------------------------
          nuclear repulsion energy  :   790.386277595    
          ------------------------


                  -------------------------------------------- 
                 |  HXX+RIRPA total energy     =   -649.53432528495  |
                  --------------------------------------------- 
                 :  RIRPA correlation energy   =     -4.50728883798  :
                 :  HXX total energy           =   -645.02703644697  :
                 :  Hartree energy             =   1099.12297492628  :
                 :  Exact Exchange energy      =    -81.90696655775  :
                  ............................................. 


    ------------------------------------------------------------------------
    Rirpa Energy profiling         cpu                    wall         ratio
    ------------------------------------------------------------------------
    module                         sec     %               sec     %
    ------------------------------------------------------------------------
    RIRPA_energy               3938.4  100.00         1789.2  100.00   2.2
    riccaux                       6.1    0.15            0.8    0.04   7.7
    riccbound                     8.1    0.21            6.4    0.36   1.3
    ccmkbaoi                    354.3    9.00           44.8    2.50   7.9
    ecrpa                      2183.6   55.44          367.0   20.51   6.0
    tread                       242.4    6.15           47.8    2.67   5.1
    tqbuild                    1779.6   45.19          282.5   15.79   6.3
    trpaln                      126.3    3.21           16.3    0.91   7.7
    ehxx                       1378.5   35.00         1368.6   76.49   1.0
    ------------------------------------------------------------------------
    sum                       10025.0  254.54         3925.1  219.37   2.6
    ------------------------------------------------------------------------

 residuum convergence criterium   :  0.10E-04


 integral neglect threshold       :  0.27E-11
 integral storage threshold THIZE :  0.10E-04
 integral storage threshold THIME :         5


 WARNING : cannot change filename for statistics 
  
           ------------------
           density functional
           ------------------
 Slater Dirac exchange with PW LDA corr. functional
 iterations will be done with small grid
  
 spherical integration : Lebedev's spherical grid
 spherical gridsize    :           5
    i.e. gridpoints    :         590
 value for diffuse not defined
 radial integration    : Chebyshev 2nd kind (scaling 3)
 radial gridsize       :           8
 integration cells     :          21
 partition function    : becke
 partition sharpness   :           3
  
 preparing numerical integration ....
          Overall gridpoints after grid construction =        107356

 Calculating ground state density on molecular grid

 Integral of ground state density: N =   94.00001260198080    



          IRREP   tensor space dimension   number of roots

           a             43898                   1
 number of passes:    1
 
 Number of eigenvalues < 6e-3:            0
 
 
            -----------------------------
            Complex frequency integration
            -----------------------------
 
 Number of Clenshaw-Curtis nodes:          100
 Optimized scaling parameter    :    6.00049944742033     
 Sensitivity measure            :  -1.851973016108593E-005
 
 Contributions to RI integral batches: 
  neglected integral batches:        9953
  direct contribution:              35498
  memory contribution:           0

 maximum number of Davidson iterations set to   25


 logfile dipl_a    exists already

 found      1 converged vectors on dipl_a   
 read       1 vectors from logfile dipl_a   


                    ------------------

                     CPKS equations   

                    ------------------


                       Block Davidson iteration


 total number of roots to be determined:   1


 maximum core memory set to 10000 MB,
 corresponding to      880 vectors in CAO basis


 maximum number of simultaneously treated vectors (including degeneracy):        1


 Iteration IRREP Converged      Max. Euclidean
                 roots          residual norm

    1       a        0        2.179151197015398D-01
 
    2       a        0        3.274249443873211D-03
 
    3       a        0        1.802706342897339D-03
 
    4       a        0        3.289641891179932D-04
 
    5       a        0        5.274862652064700D-05
 
    6       a        0        2.123709519552200D-05
 
    7       a        0        1.008416363787580D-05
 
    8       a        1        3.222464788884721D-06
 

 converged!


 Switching to fine grid

 preparing numerical integration ....
          Overall gridpoints after grid construction =        339910

 Calculating ground state density on molecular grid

 Integral of ground state density: N =   93.99999607416285    



 Iteration IRREP Converged      Max. Euclidean
                 roots          residual norm

    9       a        0        1.159375002437772D-05
 

 NOTE: Residual norms are larger than 1.00D-05 due to mgrid option!

 Eigenpairs written on logfile dipl_a   



 IRREP   Vector     Frequency            Euclidean residual norm

  a         1    0.000000000000000D+00    1.159375002437772D-05
 

                    -------------------

                     relaxed densities 

                    -------------------

    ----------------------------------------
     S+T+V CONTRIBUTIONS TO ENERGY GRADIENT 
    ----------------------------------------

 1e-integral 1st. derivatives will be neglected if expon. factor < 0.100000E-10


    -----------------------------------------------
     TWO ELECTRON CONTRIBUTIONS TO ENERGY GRADIENT 
    -----------------------------------------------

 setting up bound for integral derivative estimation

 increment for numerical differentiation : 0.00050000

 biggest AO integral is expected to be     6.990327543
 biggest cartesian 1st derivative AO integral is expected to be    14.574739305

 biggest 1-particle AO density matrix element is expected to be    0.6556919657

 core memory to be involved in 2e-gradient :
   symmetry shell pair data              :         1
   two particle density+dens. estimates  :    239932
   derivative integrals                  :   1194671
   ij-primitive data                     :       576
   derivative integral bound             :    136353
   totally                               :   1331598


 setting up bound for integral derivative estimation

 increment for numerical differentiation : 0.00050000

 biggest AO integral is expected to be     6.990327543
 biggest cartesian 1st derivative AO integral is expected to be    14.574739305

 2e-integral 1st. derivatives will be neglected if expon. factor < 0.935762E-20
 outer boundary for 2e-integral derivative neglection is 0.362756E-20

 Integrated ground state density     :   93.99999607416277    


          ------------------------------------------------
           cartesian gradient of the energy (hartree/bohr)
          ------------------------------------------------

  ATOM      1 c           2 c           3 c           4 c           5 c 
dE/dx  0.1388440D-04  0.4855112D-05 -0.4271637D-05 -0.2646188D-06 -0.2003899D-08
dE/dy  0.2481761D-05  0.6617754D-05  0.9532481D-06 -0.3813382D-05  0.1681582D-05
dE/dz -0.6274552D-08 -0.6168131D-05 -0.1136504D-05 -0.5195928D-05  0.2876833D-06

  ATOM      6 c           7 c           8 o           9 o          10 o 
dE/dx -0.2700699D-05 -0.1541467D-04  0.7268109D-06  0.2038864D-05  0.4496467D-05
dE/dy  0.9993815D-06 -0.9713751D-05 -0.5520225D-05  0.8914493D-06  0.2794010D-05
dE/dz  0.4772281D-05  0.6052469D-05  0.1570953D-04 -0.1974243D-05 -0.4285890D-05

  ATOM     11 c          12 h          13 o          14 c          15 h 
dE/dx -0.1410579D-04  0.2431168D-05 -0.6701177D-07  0.1721564D-04  0.1808368D-05
dE/dy  0.1887377D-05 -0.1530169D-05 -0.3168767D-05  0.5067243D-05  0.5786764D-06
dE/dz -0.1732775D-04  0.1676881D-05  0.3900083D-05  0.8625638D-06  0.2408724D-05

  ATOM     16 h          17 h          18 h          19 h          20 h 
dE/dx  0.4100812D-06 -0.7218139D-06 -0.3372391D-06 -0.1175929D-05  0.1667972D-06
dE/dy  0.1419456D-05  0.2432724D-06 -0.5490962D-06 -0.2834684D-05  0.1884607D-05
dE/dz  0.2077301D-05  0.4446077D-06 -0.2862378D-05 -0.1889924D-05  0.5723781D-06

  ATOM     21 h 
dE/dx -0.9084007D-05
dE/dy -0.1873487D-06
dE/dz  0.2424603D-05
 
 resulting FORCE  (fx,fy,fz) = (-.112D-06,0.182D-06,0.342D-06)
 resulting MOMENT (mx,my,mz) = (0.480D-06,-.216D-05,-.359D-05)


 **********************************************************************
  |maximum component of gradient| : 0.17327751E-04  (atom 11 c )       
   gradient norm                  : 0.45766203E-04
 **********************************************************************

 exx =       0.000010 eyy =      -0.000024 ezz =       0.000018
 eyz =       0.000001 exz =       0.000004 exy =      -0.000007

   ***  cartesian gradients written onto <gradient>  ***
 
 
 
 ==============================================================================
                           electrostatic moments
 ==============================================================================

 reference point for electrostatic moments:    0.00000   0.00000   0.00000

 
              nuc           gs,e       ->  gs,tot          rpa       ->  total
 ------------------------------------------------------------------------------
                          charge      
 ------------------------------------------------------------------------------
          94.000000     -94.000000       0.000000      -0.000000       0.000000
 
 ------------------------------------------------------------------------------
                       dipole moment  
 ------------------------------------------------------------------------------
   x       8.197107      -7.669604       0.527503      -0.003893       0.523610
   y      27.979249     -28.319788      -0.340539       0.019573      -0.320966
   z     -10.659453      11.110729       0.451276      -0.043370       0.407906
 
   | dipole moment | =     0.7373 a.u. =     1.8740 debye 
 
 ------------------------------------------------------------------------------
                     quadrupole moment
 ------------------------------------------------------------------------------
  xx    1097.270747   -1146.096973     -48.826225      -0.334231     -49.160456
  yy     840.795725    -888.109275     -47.313550      -0.224183     -47.537733
  zz     125.747592    -185.084649     -59.337056       0.127450     -59.209607
  xy    -192.445168     192.534598       0.089431       0.062847       0.152277
  xz    -141.121982     136.402059      -4.719923       0.299837      -4.420086
  yz     -34.714846      33.456428      -1.258418       0.050583      -1.207835
 
     1/3  trace=     -51.969265
     anisotropy=      13.527132
 
 ==============================================================================
 

    ------------------------------------------------------------------------
    Rirpa profiling                cpu                    wall         ratio
    ------------------------------------------------------------------------
    module                         sec     %               sec     %
    ------------------------------------------------------------------------
    RIRPA                     28552.0  100.00        14452.8  100.00   2.0
    RIRPA_energy               3938.4   13.79         1789.2   12.38   2.2
    ccmkbaoi                    354.3    1.24           44.8    0.31   7.9
    ecrpa                      2183.6    7.65          367.0    2.54   6.0
    tread                       242.4    0.85           47.8    0.33   5.1
    tqbuild                    1779.6    6.23          282.5    1.95   6.3
    trpaln                      126.3    0.44           16.3    0.11   7.7
    ehxx                       1378.5    4.83         1368.6    9.47   1.0
    RIRPA_grad                24613.6   86.21        12663.6   87.62   1.9
    rirhs                     12822.1   44.91         1847.8   12.79   6.9
    respon                      678.5    2.38          170.3    1.18   4.0
    rparelax                    186.8    0.65           33.6    0.23   5.6
    egdfin                    10792.2   37.80        10594.1   73.30   1.0
    ------------------------------------------------------------------------
    sum                       87697.6  307.15        43690.9  302.30   2.0
    ------------------------------------------------------------------------


    ------------------------------------------------------------------------
         total  cpu-time :  7 hours 55 minutes and 52 seconds
         total wall-time :  4 hours  0 minutes and 53 seconds
    ------------------------------------------------------------------------


   ****  rirpa : all done  ****


    2015-11-01 23:31:38.571 

                                 ****   rirpa : all done  ****
fine, there is no data group "$actual step"
script actual: unknown actual step rirpa
next step = unknown
 energy change  : actual value =   0.8630E-07 threshold =   0.1000E-06
 geom. gradient : actual value =   0.2989E-04 threshold =   0.1000E-03

CONVERGENCY CRITERIA FULFILLED IN CYCLE 15

