 this is node-proc. number 0 running on node c-4-11.local
 the total number of node-proc. spawned is  33

 dscfserver (c-4-11.local) : TURBOMOLE V7.2 ( 21471 ) 7 Nov 2017 at 16:15:16
 Copyright (C) 2017 TURBOMOLE GmbH, Karlsruhe


    2018-02-20 01:56:48.575 

 
    0:01:32 ---- Start global counter...
    0:49:49 ---- ... finished.
 
    0:51:19 ---- Start global counter...
    1:39:43 ---- ... finished.
 
    1:41:17 ---- Start global counter...
    2:27:30 ---- ... finished.
 
    2:29:00 ---- Start global counter...
    3:11:39 ---- ... finished.
 
    3:13:10 ---- Start global counter...
    3:51:26 ---- ... finished.
 
    3:53:24 ---- Start global counter...
    4:24:59 ---- ... finished.
 
    4:26:32 ---- Start global counter...
    4:55:41 ---- ... finished.
 
    4:57:13 ---- Start global counter...
    5:23:05 ---- ... finished.
 
    5:24:36 ---- Start global counter...
    5:47:39 ---- ... finished.
 
    5:49:10 ---- Start global counter...
    6:10:42 ---- ... finished.
 
    6:12:38 ---- Start global counter...
    6:30:52 ---- ... finished.
 
    6:32:22 ---- Start global counter...
    6:47:43 ---- ... finished.
 
    6:49:15 ---- Start global counter...
    7:02:55 ---- ... finished.
 
    7:04:29 ---- Start global counter...
    7:16:39 ---- ... finished.
 
    7:18:11 ---- Start global counter...
    7:28:01 ---- ... finished.
 
    7:29:59 ---- Start global counter...
    7:39:39 ---- ... finished.
 
    7:40:55 ---- ByeBye Tag received


 ! Total wall-clock time in seconds  :    27655.4
 ! Time (sec) spent in global counter:    26031.9
 ! So-called SERIAL wall-clock time  :     1623.5

  *** Regular termination of server ***
 total turnaround time of dscfserver 27656.16 sec
 cpu elapsed by dscfserver process   26045.43 sec 

   ***  dscf server : all done  ***


    2018-02-20 09:37:44.740 

