Using Slurm to start processes with PMI2
STARTING ridft ON 8 PROCESSORS!
RUNNING PROGRAM /beegfs/modfac/apps/TURBOMOLE/7.0_intel_GA/bin/em64t-unknown-linux-gnu_mpi/ridft_mpi.
PLEASE WAIT UNTIL ridft HAS FINISHED.
Look for the output in slave1.output.
  this is node-proc. number 1 running on node c-8-28.local
  the total number of node-proc. spawned is            8
  parallel platform: MPP, or cluster with fast interconnect

 ridft (c-8-28.local) : TURBOMOLE V7.0.2( ) 15 Jan 2016 at 17:47:42
 Copyright (C) 2016 TURBOMOLE GmbH, Karlsruhe


    2017-11-07 20:42:00.908 



                                  r i d f t

                        DFT program with RI approximation 
                                for coulomb part 




                                                 
                                 References:     
                                                 
          TURBOMOLE:                             
              R. Ahlrichs, M. Baer, M. Haeser, H. Horn, and
              C. Koelmel
              Electronic structure calculations on workstation
              computers: the program system TURBOMOLE
              Chem. Phys. Lett. 162: 165 (1989)
          Density Functional:                              
              O. Treutler and R. Ahlrichs                      
              Efficient Molecular Numerical Integration Schemes
              J. Chem. Phys. 102: 346 (1995)                   
          Parallel Version:                                
              Performance of parallel TURBOMOLE for Density    
              Functional Calculations                          
              M. v. Arnim and R. Ahlrichs                      
              J. Comp. Chem. 19: 1746 (1998)                   
          RI-J Method:                                     
              Auxiliary Basis Sets to approximate Coulomb      
              Potentials                                       
              Chem. Phys. Lett. 240: 283 (1995)                
              K. Eichkorn, O. Treutler, H. Oehm, M. Haeser     
              and R. Ahlrichs                                  
              Chem. Phys. Lett. 242: 652 (1995)                
                                                           
              Auxiliary Basis Sets for Main Row Atoms and their
              Use to approximate Coulomb Potentials            
              K. Eichkorn, F. Weigend, O. Treutler and         
              R. Ahlrichs                                      
              Theo. Chem. Acc. 97: 119 (1997)                   
                                                           
              Accurate Coulomb-fitting basis sets for H to Rn 
              F. Weigend                                        
              Phys. Chem. Chem. Phys. 8: 1057 (2006)            
                                                           
          Multipole accelerated RI-J (MARI-J):             
              Fast evaluation of the Coulomb potential for     
              electron densities using multipole accelerated   
              resolution of identity approximation             
              M. Sierka, A. Hogekamp and R. Ahlrichs           
              J. Chem. Phys. 118: 9136 (2003)                  
          RI-JK Method:                                     
              A fully direct RI-HF algorithm: Implementation,
              optimised auxiliary basis sets, demonstration of
              accuracy and efficiency                         
              F. Weigend                                      
              Phys. Chem. Chem. Phys. 4: 4285 (2002)           
          Two-component HF and DFT with spin-orbit coupling:  
              Self-consistent treatment of spin-orbit         
              interactions with efficient Hartree-Fock and    
              density functional methods                      
              M. K. Armbruster, F. Weigend, C. van Wüllen and 
              W. Klopper                                      
              Phys. Chem. Chem. Phys. 10: 1748 (2008)         
          Relativistic all-electron 2c calculations           
              An efficient implementation of two-component    
              relativistic exact-decoupling methods for large 
              molecules                                       
              D. Peng, N. Middendorf, F. Weigend, M. Reiher   
              J. Chem. Phys. 138, 184105 (2013)               
                                         


 


              +--------------------------------------------------+
              |      general information about current run       |
              +--------------------------------------------------+

 

 SCF run will be profiled !


 DENSITY CONVERGENCE CHECK SWITCHED ON !
 SCF CONVERGENCE IF RMS(delta[D]) <     0.1000000000E-06

 TPSS meta-GGA functional
 exchange:    LDA + TPSS
 correlation: LDA (PW) + TPSS
 A DFT calculation using the RI-J approximation will be carried out.
 Allocatable memory for RI due to $ricore (MB):       12000


              +--------------------------------------------------+
              | Atomic coordinate, charge and isotop information |
              +--------------------------------------------------+

                    atomic coordinates            atom    charge  isotop
         -5.09425181   -3.26446829    2.11259038    c      6.000     0
         -6.61040292   -4.75733874    0.08126498    c      6.000     0
         -8.50624721   -5.36569200    4.12616180    c      6.000     0
         -9.22036246   -5.17207366    1.33093207    c      6.000     0
         -5.51292655   -2.53359755   -6.39260694    c      6.000     0
        -14.43286098   -0.89761626   -0.45004351    c      6.000     0
         -2.35410965   -4.52102398   -3.44989424    c      6.000     0
          4.37590639   -6.00023831    1.27616147    c      6.000     0
        -13.03287656   -4.77920300   -2.80194771    c      6.000     0
         -6.00344632   -7.10497801   -5.13480051    c      6.000     0
        -14.89307840   -5.17845615    1.59366510    c      6.000     0
          5.11682730   -6.92592709   -1.36681123    c      6.000     0
         -5.12272030   -4.47703839   -4.29552647    c      6.000     0
        -13.30960613   -3.54496180   -0.19774985    c      6.000     0
         -7.90668881   -8.05053249    4.99471340    c      6.000     0
          6.20475335   -9.60716333   -1.31870471    c      6.000     0
          7.01852920  -10.52513555   -3.93954749    c      6.000     0
         -2.79238232    0.82253562    1.41526416    c      6.000     0
         -3.54304985    3.31676432    1.03872907    c      6.000     0
         -6.95253272    1.19069825    1.43942626    c      6.000     0
         -4.98743605   -0.54970802    1.68120087    n      7.000     0
          1.35596315    1.63005179    1.13262878    c      6.000     0
          0.82986576    4.12938093    0.75050968    n      7.000     0
          3.87741265    0.99531533    1.11521875    n      7.000     0
          3.38488039   -3.42702256    1.28339395    n      7.000     0
         -1.63547074    5.17945030    0.64860103    c      6.000     0
          4.94741263   -1.42660914    1.17850718    c      6.000     0
         -0.41115776   -0.10895343    1.47896618    n      7.000     0
         -6.15541399    3.50769437    1.06283321    n      7.000     0
        -10.82511939   -3.06362886    0.91742552    o      8.000     0
         -6.77249515   -3.55135046   -2.27580874    o      8.000     0
         -6.25302482   -3.83161432    4.47089994    o      8.000     0
          7.28768336   -1.63511226    1.12514915    o      8.000     0
         -1.89907835    7.46450682    0.22664537    o      8.000     0
        -10.18549481   -9.49683427    4.73411143    o      8.000     0
          1.49483001   -3.02728986    1.37112338    h      1.000     0
          5.20485103    2.45085230    1.03941168    h      1.000     0
          2.30957988    5.40312756    0.41045353    h      1.000     0
         -3.11682656   -3.85761260    2.18339681    h      1.000     0
         -5.70908004   -6.61786383   -0.08283500    h      1.000     0
        -10.08568850   -6.92367859    0.66521240    h      1.000     0
         -9.93369499  -11.12185288    5.53882135    h      1.000     0
         -9.99874615   -4.55955899    5.30382850    h      1.000     0
         -8.89333078    0.57167588    1.54354772    h      1.000     0
          3.45551875   -6.85480819   -2.60813767    h      1.000     0
          6.02613770   -6.06387393    2.52264593    h      1.000     0
          6.51786291   -5.61396746   -2.14583799    h      1.000     0
          4.79769968  -10.91466672   -0.52880946    h      1.000     0
          7.83174237   -9.65402288   -0.03280241    h      1.000     0
          2.91320857   -7.21727828    2.09049035    h      1.000     0
         -1.76292955   -2.66346694   -2.76727156    h      1.000     0
         -7.26421341   -7.98831866    6.96555229    h      1.000     0
         -6.37700073   -8.85375861    3.83358097    h      1.000     0
        -11.78749503   -3.64157613   -3.99269589    h      1.000     0
         -4.93676908   -0.65926494   -5.74004732    h      1.000     0
         -2.03733749   -5.91390741   -1.94936531    h      1.000     0
         -7.50742333   -2.45646532   -6.92995982    h      1.000     0
         -1.14346513   -5.04750102   -5.04264172    h      1.000     0
         -7.98041441   -7.04009544   -5.73245357    h      1.000     0
        -13.25767009    0.26431640   -1.69205887    h      1.000     0
        -14.02786087   -7.03145404    1.90401046    h      1.000     0
        -14.53921644    0.01289615    1.40345776    h      1.000     0
        -14.88929190   -4.92650299   -3.70437412    h      1.000     0
        -15.09684589   -4.23930362    3.42506047    h      1.000     0
         -4.39569702   -3.03669200   -8.05887641    h      1.000     0
        -16.33957578   -1.00104686   -1.24444172    h      1.000     0
        -12.25298007   -6.69120057   -2.66662224    h      1.000     0
         -4.85334330   -7.77316186   -6.71992755    h      1.000     0
        -16.77964835   -5.47929086    0.79713712    h      1.000     0
         -5.82111117   -8.49059029   -3.60624988    h      1.000     0
          5.40915389  -10.56928448   -5.24309553    h      1.000     0
          8.44861836   -9.26522391   -4.74835848    h      1.000     0
          7.82454229  -12.42883904   -3.85538318    h      1.000     0
 
       center of nuclear mass  :   -3.74581490   -2.72437052    0.25921073
       center of nuclear charge:   -3.79469480   -2.90210974    0.17001430

              +--------------------------------------------------+
              |               basis set information              |
              +--------------------------------------------------+

              we will work with the 1s 3p 5d 7f 9g ... basis set
              ...i.e. with spherical basis functions...

   type   atoms  prim   cont   basis
   ---------------------------------------------------------------------------
    c       23     50     30   cc-pVTZ   [4s3p2d1f|18s5p2d1f]
    n        6     50     30   cc-pVTZ   [4s3p2d1f|18s5p2d1f]
    o        6     50     30   cc-pVTZ   [4s3p2d1f|18s5p2d1f]
    h       38     16     14   cc-pVTZ   [3s2p1d|5s2p1d]
   ---------------------------------------------------------------------------
   total:   73   2358   1582
   ---------------------------------------------------------------------------

   total number of primitive shells          :   86
   total number of contracted shells         :  578
   total number of cartesian basis functions : 1795
   total number of SCF-basis functions       : 1582


 integral neglect threshold       :  0.19E-13
 integral storage threshold THIZE :  0.10E-04
 integral storage threshold THIME :         5

 RI-J AUXILIARY BASIS SET information:

              we will work with the 1s 3p 5d 7f 9g ... basis set
              ...i.e. with spherical basis functions...

   type   atoms  prim   cont   basis
   ---------------------------------------------------------------------------
    c       23     70     49   cc-pVTZ   [6s4p3d1f1g|12s5p4d2f1g]
    n        6     70     49   cc-pVTZ   [6s4p3d1f1g|12s5p4d2f1g]
    o        6     70     49   cc-pVTZ   [6s4p3d1f1g|12s5p4d2f1g]
    h       38     16     11   cc-pVTZ   [3s1p1d|5s2p1d]
   ---------------------------------------------------------------------------
   total:   73   3058   2133
   ---------------------------------------------------------------------------

   total number of primitive shells          :   80
   total number of contracted shells         :  715
   total number of cartesian basis functions : 2591
   total number of SCF-basis functions       : 2133


 symmetry group of the molecule :   c1 

 the group has the following generators :
   c1(z)

    1 symmetry operations found

 there are 1 real representations :   a   

 maximum number of shells which are related by symmetry :  1


    mo occupation :
   irrep   mo's   occupied
    a     1582      133
 
 number of basis functions   :         1582
 number of occupied orbitals :          133
 
  
           ------------------
           density functional
           ------------------
 TPSS meta-GGA functional
 exchange:    LDA + TPSS
 correlation: LDA (PW) + TPSS
 grinp -> nfun, dfgga, dfhybrid 
           5 F F
 iterations will be done with small grid
  
 spherical integration : Lebedev's spherical grid
 spherical gridsize    :           5
    i.e. gridpoints    :         590
 value for diffuse not defined
 radial integration    : Chebyshev 2nd kind (scaling 3)
 radial gridsize       :           8
 integration cells     :          73
 partition function    : becke
 partition sharpness   :           3
  

 <rddim> : input of entry tasksize
           from data group '$pardft' failed !

               Default values taken

 <rddim> : input of entry memdiv
           from data group '$pardft' failed !

               Default values taken
  RIDFT: memory allocation for DFT gridpoints
  MEMORY is divided by 1 as DEFAULT
 Each node can hold at most  the            1 -th part
 of the gridpoints    

 biggest AO integral is expected to be     4.866064444
  
           ------------------------
               RI-J - INFORMATION
           ------------------------
 
 
 **************************************************
 *      MEMORY ALLOCATION FOR PARALLEL RI-DFT     *
 **************************************************
 
 
MEMORY FOR (MU NU/ ALPHA), SEQUENTIAL RUN              11964 MByte
 
            DIFFERENCE IN MEMORY NEED:       DIAG./SLAVE  
 
      TOTAL DIFFERENCE :                    137 MByte
 
      difference in xcore:                   37 MByte
      difference in fatmat:                  37 MByte
      getcor calls skipped by slaves:        63 MByte
 
 
           Integral memory available for diagonal.     11964 MByte
 
           Integral memory available for slave             0 MByte
 
         MEMORY FOR (MU NU/ ALPHA) ON DIAGONALIZER     11964 MByte
 
         MEMORY FOR (MU NU/ ALPHA) ON ONE SLAVE            0 MByte
 
         TOTAL MEMORY FOR (MU NU/ ALPHA),ALL NODES     11964 MByte
 
 Contributions to RI integral batches: 
  neglected integral batches:       83970
  direct contribution:               5633
  memory contribution:       77728
 Memory core needed for (P|Q) and Cholesky     35 MByte
 Memory core minimum needed except of (P|Q)     7 MByte
 Total minimum memory core needed (sum)        42 MByte
     number of direct tasks:         160
  
 ****************************************
 Memory allocated for RI-J 12005 MByte
 ****************************************
                                            

          ------------------------
          nuclear repulsion energy  :   4176.20721317    
          ------------------------

 
          -----------------
          -S integrals
          -----------------

 1e-integrals will be neglected if expon. factor < 0.186182E-14
 
          -----------------
          -T+V integrals
          -----------------

 1e-integrals will be neglected if expon. factor < 0.186182E-14
 Difference densities >>NOT<< switched on in parallel ridft!

 automatic virtual orbital shift switched on 
      shift if e(lumo)-e(homo) < 0.10000000    


 DIIS switched on: error vector is FDS-SDF
 Max. Iterations for DIIS is     :   4
 DIIS matrix (see manual) 
    Scaling factor of diagonals  :  1.200
    threshold for scaling factor :  0.000

 scf convergence criterion : increment of total energy < .1000000D-08
                  and increment of one-electron energy < .1000000D-05


 <geterg> : there is no data group $energy 

  MOs are in ASCII format !


 reading orbital data $scfmo  from file mos . 

 orbital characterization : expanded
 
 mo provided and orthogonalized by Cholesky decomposition

 DSCF restart information will be dumped onto file mos


 Starting SCF iterations


 ITERATION  ENERGY          1e-ENERGY        2e-ENERGY     RMS[dD(SAO)]   TOL
   1  -1673.5700882262    -10551.081419     4701.3041174    0.000D+00 0.186D-13
                            Exc = -230.153235257     Coul =  4931.45735269    
                              N = 266.00056927    
                            current damping = 0.700
 
          max. resid. norm for Fia-block=  3.215D-01 for orbital     90a         
          max. resid. fock norm         =  4.170D+00 for orbital   1532a         

 ITERATION  ENERGY          1e-ENERGY        2e-ENERGY     RMS[dD(SAO)]   TOL
   2  -1678.9001895044    -10581.277746     4726.1703438    0.193D-02 0.186D-13
                            Exc = -230.983872699     Coul =  4957.15421649    
                              N = 266.00040638    
                            current damping = 0.650
 
          Norm of current diis error:  4.7708    
          max. resid. norm for Fia-block=  1.542D-01 for orbital      6a         
          max. resid. fock norm         =  3.654D-01 for orbital   1572a         

 ITERATION  ENERGY          1e-ENERGY        2e-ENERGY     RMS[dD(SAO)]   TOL
   3  -1679.7522565156    -10593.508886     4737.5494160    0.114D-02 0.186D-13
                            Exc = -232.336685352     Coul =  4969.88610137    
                              N = 266.00033022    
                            current damping = 0.550
 
          Norm of current diis error:  2.3465    
          max. resid. norm for Fia-block=  6.132D-02 for orbital      6a         
          max. resid. fock norm         =  7.641D-02 for orbital   1552a         

 ITERATION  ENERGY          1e-ENERGY        2e-ENERGY     RMS[dD(SAO)]   TOL
   4  -1680.0191862337    -10595.616863     4739.3904634    0.991D-03 0.186D-13
                            Exc = -232.325777991     Coul =  4971.71624137    
                              N = 266.00025876    
                            current damping = 0.450
 
          Norm of current diis error: 0.97514    
          max. resid. norm for Fia-block=  3.728D-02 for orbital    133a         
          max. resid. fock norm         =  7.948D-02 for orbital   1514a         

 ITERATION  ENERGY          1e-ENERGY        2e-ENERGY     RMS[dD(SAO)]   TOL
   5  -1680.0563412699    -10598.688816     4742.4252611    0.378D-03 0.186D-13
                            Exc = -232.821543448     Coul =  4975.24680452    
                              N = 266.00023117    
                            current damping = 0.350
 
          Norm of current diis error: 0.59691    
          max. resid. norm for Fia-block=  2.150D-02 for orbital    132a         
          max. resid. fock norm         =  2.699D-02 for orbital    132a         
          mo-orthogonalization: Cholesky decomposition

 ITERATION  ENERGY          1e-ENERGY        2e-ENERGY     RMS[dD(SAO)]   TOL
   6  -1680.0714285599    -10600.000221     4743.7215793    0.369D-03 0.186D-13
                            Exc = -232.788946914     Coul =  4976.51052622    
                              N = 266.00021693    
                            current damping = 0.250
 
          Norm of current diis error: 0.28954    
          max. resid. norm for Fia-block=  1.071D-02 for orbital    132a         
          max. resid. fock norm         =  1.723D-02 for orbital   1530a         

 ITERATION  ENERGY          1e-ENERGY        2e-ENERGY     RMS[dD(SAO)]   TOL
   7  -1680.0740823250    -10598.534122     4742.2528268    0.139D-03 0.186D-13
                            Exc = -232.762912769     Coul =  4975.01573953    
                              N = 266.00021501    
                            current damping = 0.300
 
          Norm of current diis error: 0.18128    
          max. resid. norm for Fia-block=  3.918D-03 for orbital    133a         
          max. resid. fock norm         =  6.585D-03 for orbital    131a         

 ITERATION  ENERGY          1e-ENERGY        2e-ENERGY     RMS[dD(SAO)]   TOL
   8  -1680.0754787515    -10599.261619     4742.9789269    0.612D-04 0.186D-13
                            Exc = -232.784993659     Coul =  4975.76392060    
                              N = 266.00021302    
                            current damping = 0.350
 
          Norm of current diis error: 0.44226E-01
          max. resid. norm for Fia-block=  1.616D-03 for orbital    133a         
          max. resid. fock norm         =  2.306D-03 for orbital   1564a         

 ITERATION  ENERGY          1e-ENERGY        2e-ENERGY     RMS[dD(SAO)]   TOL
   9  -1680.0754864154    -10599.282554     4742.9998546    0.204D-04 0.186D-13
                            Exc = -232.804494467     Coul =  4975.80434910    
                              N = 266.00021351    
                            current damping = 0.200
 
          Norm of current diis error: 0.41268E-01
          max. resid. norm for Fia-block=  8.857D-04 for orbital    133a         
          max. resid. fock norm         =  1.317D-03 for orbital     42a         

 ITERATION  ENERGY          1e-ENERGY        2e-ENERGY     RMS[dD(SAO)]   TOL
  10  -1680.0755549896    -10599.322489     4743.0397211    0.124D-04 0.186D-13
                            Exc = -232.796731733     Coul =  4975.83645280    
                              N = 266.00021315    
                            current damping = 0.050
 
          Norm of current diis error: 0.13253E-01
          max. resid. norm for Fia-block=  3.247D-04 for orbital    126a         
          max. resid. fock norm         =  5.735D-04 for orbital     47a         
          mo-orthogonalization: Cholesky decomposition

 ITERATION  ENERGY          1e-ENERGY        2e-ENERGY     RMS[dD(SAO)]   TOL
  11  -1680.0755593550    -10599.261491     4742.9787180    0.419D-05 0.186D-13
                            Exc = -232.793980737     Coul =  4975.77269877    
                              N = 266.00021329    
                            current damping = 0.100
 
          Norm of current diis error: 0.83558E-02
          max. resid. norm for Fia-block=  1.862D-04 for orbital    126a         
          max. resid. fock norm         =  3.666D-04 for orbital     47a         

 ITERATION  ENERGY          1e-ENERGY        2e-ENERGY     RMS[dD(SAO)]   TOL
  12  -1680.0755614208    -10599.285869     4743.0030942    0.228D-05 0.186D-13
                            Exc = -232.795815340     Coul =  4975.79890950    
                              N = 266.00021317    
                            current damping = 0.150
 
          Norm of current diis error: 0.43964E-02
          max. resid. norm for Fia-block=  1.304D-04 for orbital    132a         
          max. resid. fock norm         =  1.711D-04 for orbital    132a         

 ITERATION  ENERGY          1e-ENERGY        2e-ENERGY     RMS[dD(SAO)]   TOL
  13  -1680.0755620865    -10599.288637     4743.0058614    0.169D-05 0.186D-13
                            Exc = -232.795113296     Coul =  4975.80097468    
                              N = 266.00021318    
                            current damping = 0.050
 
          Norm of current diis error: 0.19436E-02
          max. resid. norm for Fia-block=  8.145D-05 for orbital    132a         
          max. resid. fock norm         =  1.060D-04 for orbital   1530a         

 ITERATION  ENERGY          1e-ENERGY        2e-ENERGY     RMS[dD(SAO)]   TOL
  14  -1680.0755621674    -10599.280864     4742.9980883    0.125D-05 0.186D-13
                            Exc = -232.795254994     Coul =  4975.79334328    
                              N = 266.00021321    
                            current damping = 0.100
 
          Norm of current diis error: 0.14615E-02
          max. resid. norm for Fia-block=  3.724D-05 for orbital    132a         
          max. resid. fock norm         =  5.634D-05 for orbital   1527a         

 ITERATION  ENERGY          1e-ENERGY        2e-ENERGY     RMS[dD(SAO)]   TOL
  15  -1680.0755622654    -10599.285947     4743.0031716    0.621D-06 0.186D-13
                            Exc = -232.795289656     Coul =  4975.79846128    
                              N = 266.00021319    
                            current damping = 0.150
 
          Norm of current diis error: 0.36867E-03
          max. resid. norm for Fia-block=  1.028D-05 for orbital    131a         
          max. resid. fock norm         =  1.755D-05 for orbital   1542a         
          mo-orthogonalization: Cholesky decomposition

 ITERATION  ENERGY          1e-ENERGY        2e-ENERGY     RMS[dD(SAO)]   TOL
  16  -1680.0755622686    -10599.284505     4743.0017293    0.130D-06 0.186D-13
                            Exc = -232.795250490     Coul =  4975.79697978    
                              N = 266.00021319    
                            current damping = 0.200
 
          Norm of current diis error: 0.24932E-03
          max. resid. norm for Fia-block=  4.696D-06 for orbital    124a         
          max. resid. fock norm         =  9.604D-06 for orbital   1542a         

 DENSITY CONVERGED !


 ITERATION  ENERGY          1e-ENERGY        2e-ENERGY     RMS[dD(SAO)]   TOL
  17  -1680.0755622709    -10599.284925     4743.0021497    0.582D-07 0.186D-13
                            Exc = -232.795244195     Coul =  4975.79739393    
                              N = 266.00021319    
                            current damping = 0.250
 
          Norm of current diis error: 0.74539E-04
          max. resid. norm for Fia-block=  2.062D-06 for orbital    129a         
          max. resid. fock norm         =  2.638D-06 for orbital   1507a         

 DENSITY CONVERGED !


 ITERATION  ENERGY          1e-ENERGY        2e-ENERGY     RMS[dD(SAO)]   TOL
  18  -1680.0755622710    -10599.284866     4743.0020902    0.266D-07 0.186D-13
                            Exc = -232.795265693     Coul =  4975.79735588    
                              N = 266.00021319    
                            current damping = 0.300
 
          Norm of current diis error: 0.44941E-04
          max. resid. norm for Fia-block=  1.158D-06 for orbital    129a         
          max. resid. fock norm         =  1.689D-06 for orbital   1512a         

 DENSITY CONVERGED !


 ITERATION  ENERGY          1e-ENERGY        2e-ENERGY     RMS[dD(SAO)]   TOL
  19  -1680.0755622710    -10599.284995     4743.0022195    0.169D-07 0.186D-13
                            Exc = -232.795258175     Coul =  4975.79747769    
                              N = 266.00021319    
                            current damping = 0.350
 
          Norm of current diis error: 0.17488E-04
          max. resid. norm for Fia-block=  2.694D-07 for orbital    124a         
          max. resid. fock norm         =  3.844D-07 for orbital   1561a         

 ENERGY & DENSITY CONVERGED !


 ITERATION  ENERGY          1e-ENERGY        2e-ENERGY     RMS[dD(SAO)]   TOL
  20  -1680.0747890217    -10599.284954     4743.0029521    0.290D-08 0.186D-13
                            Exc = -232.794484008     Coul =  4975.79743613    
                              N = 265.99998661    
                            current damping = 0.400
 
          Norm of current diis error: 0.54977E-05
          max. resid. norm for Fia-block=  2.363D-07 for orbital    132a         
          max. resid. fock norm         =  3.100D-07 for orbital   1527a         

 End of SCF iterations

   convergence criteria satisfied after   20 iterations


                  ------------------------------------------ 
                 |  total energy      =  -1680.07478902167  |
                  ------------------------------------------ 
                 :  kinetic energy    =   1670.42494805833  :
                 :  potential energy  =  -3350.49973708000  :
                 :  virial theorem    =      1.99425630274  :
                 :  wavefunction norm =      1.00000000000  :
                  .......................................... 


 <geterg> : there is no data group $energy 


 <skperg> : $end is missing 


 orbitals $scfmo  will be written to file mos

    irrep                129a        130a        131a        132a        133a   
 eigenvalues H         -0.22780    -0.21970    -0.21658    -0.21071    -0.18907
            eV          -6.1987     -5.9785     -5.8935     -5.7337     -5.1449
 occupation              2.0000      2.0000      2.0000      2.0000      2.0000 

    irrep                134a        135a        136a        137a        138a   
 eigenvalues H         -0.05146    -0.03562    -0.01343    -0.00765    -0.00461
            eV          -1.4002     -0.9694     -0.3654     -0.2081     -0.1254
 
 
 ! grave: sending quit signal to master process
 
 
 
 
 ==============================================================================
                           electrostatic moments
 ==============================================================================

 reference point for electrostatic moments:    0.00000   0.00000   0.00000

 
              nuc           elec       ->  total
 ------------------------------------------------------------------------------
                          charge      
 ------------------------------------------------------------------------------
         266.000000    -266.000000      -0.000000
 
 ------------------------------------------------------------------------------
                       dipole moment  
 ------------------------------------------------------------------------------
   x   -1009.388817    1008.768283      -0.620535
   y    -771.961192     768.500080      -3.461112
   z      45.223803     -45.553649      -0.329846
 
   | dipole moment | =     3.5317 a.u. =     8.9768 debye 
 
 ------------------------------------------------------------------------------
                     quadrupole moment
 ------------------------------------------------------------------------------
  xx   14901.704880  -15058.060710    -156.355830
  yy    7269.062083   -7418.939632    -149.877549
  zz    2130.741416   -2283.089461    -152.348044
  xy    3230.293950   -3203.380874      26.913076
  xz    -728.282019     727.735187      -0.546832
  yz     258.210053    -262.255326      -4.045272
 
     1/3  trace=    -152.860474
     anisotropy=      47.486816
 
 ==============================================================================
 

    ridft profiling
  --------------------------------------------------------------------
             module   cpu total (s)       %  wall total (s)       %

               RIDFT          1510.2  100.00          1509.5  100.00
         Ridft_b_scf            88.6    5.86            88.6    5.87
        b_scf_prelim             0.0    0.00             0.0    0.00
        b_scf_molinp             0.0    0.00             0.0    0.00
         b_scf_init0             0.0    0.00             0.0    0.00
        b_scf_auxbas             0.0    0.00             0.0    0.00
      b_scf_symmetry             0.0    0.00             0.0    0.00
         b_scf_cosmo             0.0    0.00             0.0    0.00
        b_scf_params             1.2    0.08             1.2    0.08
          b_scf_ri-j            76.4    5.06            76.4    5.06
    b_scf_ri-j_auxpq            76.4    5.06            76.4    5.06
     ri-j_auxpq_chol             1.5    0.10             1.5    0.10
         b_scf_1elec             1.4    0.09             1.4    0.09
       b_scf_moinput             9.6    0.64             9.6    0.64
     moinput_orthmos             9.3    0.62             9.3    0.62
    b_scf_dft-dstmax             0.0    0.00             0.0    0.00
           Ridft_scf          1421.1   94.10          1420.3   94.09
          Scf_b_loop             0.0    0.00             0.0    0.00
                noga             0.0    0.00             0.0    0.00
            Scf_loop          1419.4   93.99          1418.6   93.98
     scf_loop_mkdmat             4.2    0.28             4.2    0.28
       scf_loop_ri-j            59.1    3.91            59.0    3.91
      parlp1.bc.dens             1.2    0.08             1.2    0.08
        parlp1.gs.gp             0.0    0.00             0.0    0.00
        parlp2.bc.gq             0.0    0.00             0.0    0.00
        scf_loop_dft          1219.6   80.75          1218.8   80.74
      pardft.bc.dens             0.0    0.00             0.0    0.00
        dft_grid_con             2.9    0.19             2.9    0.19
          dft_xcmrhf          1203.2   79.67          1202.4   79.65
          dft_getval            30.0    1.99            30.0    1.99
          funct2 dst             0.6    0.04             0.6    0.04
      funct2 f2loop1             5.4    0.36             5.5    0.36
      funct2 f2loop2            16.2    1.07            16.1    1.07
          funct2 s+c             7.1    0.47             7.1    0.47
        funct2 cmf_2             6.2    0.41             6.2    0.41
          dft_mkdens           593.9   39.33           593.5   39.32
        dft_mgga-fun             1.4    0.09             1.4    0.09
          dft_mkfock           577.1   38.21           576.7   38.20
     pardft.red.fock           101.7    6.73           101.6    6.73
     scf_loop_energy             0.0    0.00             0.0    0.00
     scf_loop_mkfock             0.1    0.00             0.1    0.00
       scf_loop_diis            60.8    4.03            60.8    4.03
       scf_loop_diag            37.1    2.46            37.1    2.46
         diag_tritrn            11.1    0.74            11.1    0.74
          diag_rdiag            25.8    1.71            25.8    1.71
     scf_loop_modump            29.4    1.94            29.5    1.95
      scf_loop_ortho             8.3    0.55             8.3    0.55
          Scf_a_loop             1.7    0.11             1.7    0.11
         Ridft_a_scf             0.6    0.04             0.6    0.04
         a_scf_fanal             0.4    0.03             0.4    0.03
 


    ------------------------------------------------------------------------
         total  cpu-time : 25 minutes and 12 seconds
         total wall-time : 25 minutes and 12 seconds
    ------------------------------------------------------------------------


   ****  ridft : all done  ****


    2017-11-07 21:07:12.472 

