 operating system is UNIX !

 ridft (c-13-224.gp.local) : TURBOMOLE V7.2 ( 21285 ) 30 Jun 2017 at 11:51:10
 Copyright (C) 2017 TURBOMOLE GmbH, Karlsruhe


    2017-11-15 08:30:14.517 



                                  r i d f t

                        DFT program with RI approximation 
                                for coulomb part 




                                                 
                                 References:     
                                                 
          TURBOMOLE:                             
              R. Ahlrichs, M. Baer, M. Haeser, H. Horn, and
              C. Koelmel
              Electronic structure calculations on workstation
              computers: the program system TURBOMOLE
              Chem. Phys. Lett. 162: 165 (1989)
          Density Functional:                              
              O. Treutler and R. Ahlrichs                      
              Efficient Molecular Numerical Integration Schemes
              J. Chem. Phys. 102: 346 (1995)                   
          Parallel Version:                                
              Performance of parallel TURBOMOLE for Density    
              Functional Calculations                          
              M. v. Arnim and R. Ahlrichs                      
              J. Comp. Chem. 19: 1746 (1998)                   
          RI-J Method:                                     
              Auxiliary Basis Sets to approximate Coulomb      
              Potentials                                       
              Chem. Phys. Lett. 240: 283 (1995)                
              K. Eichkorn, O. Treutler, H. Oehm, M. Haeser     
              and R. Ahlrichs                                  
              Chem. Phys. Lett. 242: 652 (1995)                
                                                           
              Auxiliary Basis Sets for Main Row Atoms and their
              Use to approximate Coulomb Potentials            
              K. Eichkorn, F. Weigend, O. Treutler and         
              R. Ahlrichs                                      
              Theo. Chem. Acc. 97: 119 (1997)                   
                                                           
              Accurate Coulomb-fitting basis sets for H to Rn 
              F. Weigend                                        
              Phys. Chem. Chem. Phys. 8: 1057 (2006)            
                                                           
          Multipole accelerated RI-J (MARI-J):             
              Fast evaluation of the Coulomb potential for     
              electron densities using multipole accelerated   
              resolution of identity approximation             
              M. Sierka, A. Hogekamp and R. Ahlrichs           
              J. Chem. Phys. 118: 9136 (2003)                  
          RI-JK Method:                                     
              A fully direct RI-HF algorithm: Implementation,
              optimised auxiliary basis sets, demonstration of
              accuracy and efficiency                         
              F. Weigend                                      
              Phys. Chem. Chem. Phys. 4: 4285 (2002)           
          Two-component HF and DFT with spin-orbit coupling:  
              Self-consistent treatment of spin-orbit         
              interactions with efficient Hartree-Fock and    
              density functional methods                      
              M. K. Armbruster, F. Weigend, C. van Wüllen and 
              W. Klopper                                      
              Phys. Chem. Chem. Phys. 10: 1748 (2008)         
          Relativistic all-electron 2c calculations           
              An efficient implementation of two-component    
              relativistic exact-decoupling methods for large 
              molecules                                       
              D. Peng, N. Middendorf, F. Weigend, M. Reiher   
              J. Chem. Phys. 138, 184105 (2013)               
                                         




              +--------------------------------------------------+
              |      general information about current run       |
              +--------------------------------------------------+

 

 DENSITY CONVERGENCE CHECK SWITCHED ON !
 SCF CONVERGENCE IF RMS(delta[D]) <     0.1000000000E-06

 A HF calculation using the RI-JK approximation will be carried out.
 Allocatable memory for RI due to $ricore (MB):                 18000


              +--------------------------------------------------+
              | Atomic coordinate, charge and isotop information |
              +--------------------------------------------------+

                    atomic coordinates            atom    charge  isotop
          1.47196811   -1.86848036   -8.95518126    c      6.000     0
          2.29238430    2.36782832   -8.62296945    c      6.000     0
         -0.83269970   -0.55180433   -9.27896372    c      6.000     0
         -0.32736907    2.06501608   -9.07310178    c      6.000     0
          3.40238123   -0.06421552   -8.54018425    c      6.000     0
         -3.17627021   -1.65580103   -8.88876123    c      6.000     0
         -2.16060394    3.83039748   -8.44621261    c      6.000     0
          1.66818139   -4.37395809   -8.21335678    c      6.000     0
          3.32299130    4.51158891   -7.52354761    c      6.000     0
          5.67552383   -0.56730860   -7.33633322    c      6.000     0
          5.87616619    4.11964842   -6.57718596    c      6.000     0
          4.20841006   -5.06686530   -7.44264075    c      6.000     0
         -4.70735838    2.80673494   -8.51536936    c      6.000     0
         -5.19822113    0.18036242   -8.56507956    c      6.000     0
         -3.04528916   -4.38316550   -8.61798799    c      6.000     0
         -1.10696501    6.22523884   -7.59583483    c      6.000     0
         -0.75531554   -5.66891070   -8.12348814    c      6.000     0
          1.52749423    6.57851354   -7.31713208    c      6.000     0
          6.14157074   -8.60084304   -4.25356304    c      6.000     0
          9.17981129    5.21620448   -2.62548068    c      6.000     0
          6.07924720   -3.24966685   -6.86418050    c      6.000     0
          7.03389432    1.71109951   -6.62484464    c      6.000     0
          7.87357466   -6.79491205   -3.40651793    c      6.000     0
         10.41571202    2.90225688   -2.93064839    c      6.000     0
         -9.02992579    3.90881616   -5.99137512    c      6.000     0
         -9.48499554    1.31860859   -5.75331147    c      6.000     0
         -5.93242750   -7.79904374   -6.13828358    c      6.000     0
         -1.58120953   10.10491523   -4.07726456    c      6.000     0
         -3.71651613   -8.99435180   -5.34067377    c      6.000     0
          1.02091812   10.55498186   -4.11299880    c      6.000     0
         -3.70062764  -10.36040849   -3.07738833    c      6.000     0
          2.21332825   11.68536108   -2.04643808    c      6.000     0
         -3.01292209   10.82503072   -1.97555398    c      6.000     0
         -8.12151385   -7.91449618   -4.66836397    c      6.000     0
        -10.92615610    0.41517518   -3.72912132    c      6.000     0
         -9.96387225    5.60254648   -4.19426702    c      6.000     0
          5.40438253  -10.59068716   -2.68307755    c      6.000     0
          9.31933651    6.48714218   -0.31178830    c      6.000     0
          8.91781767   -7.01031331   -0.98780118    c      6.000     0
         11.75130533    1.82315755   -0.92496869    c      6.000     0
         10.73861358    5.46083547    1.65610150    c      6.000     0
          6.49678069  -10.82827150   -0.29615734    c      6.000     0
          8.25832245   -9.05164919    0.54144338    c      6.000     0
         11.93828924    3.13007764    1.35620050    c      6.000     0
        -11.93489824    2.11397082   -1.98782252    c      6.000     0
        -11.44523089    4.69811631   -2.21168724    c      6.000     0
         -1.83710743   12.03308399    0.04788371    c      6.000     0
         -8.10831238   -9.31789760   -2.43838714    c      6.000     0
         -5.90768907  -10.54598561   -1.65277144    c      6.000     0
          0.76837461   12.45596663    0.01729342    c      6.000     0
          7.55003503    6.65665610   -5.16761445    s     16.000     0
          5.02139032   -8.30932055   -7.38255204    s     16.000     0
         -8.34259492   -0.85195031   -8.03158400    s     16.000     0
         -7.29464587    4.92191588   -8.65764300    s     16.000     0
         -0.92465936   -8.88238093   -7.18698146    s     16.000     0
          2.68850977    9.68523152   -6.86828286    s     16.000     0
         -5.83235443   -6.18039006   -9.05502758    s     16.000     0
         -3.13866991    8.73573088   -6.70588781    s     16.000     0
          8.89895234   -4.30007297   -5.39007128    s     16.000     0
         10.30070969    1.47989545   -5.94713690    s     16.000     0
         10.23049320   -5.58269195   -0.31853914    h      1.000     0
         12.65382913   -0.00174400   -1.17541946    h      1.000     0
         -1.96399045  -11.24605416   -2.43842444    h      1.000     0
          4.24408719   11.97216151   -2.08303894    h      1.000     0
         -9.54590362    7.60246883   -4.37558665    h      1.000     0
        -11.23188957   -1.60285325   -3.52185806    h      1.000     0
         -9.80877082   -6.92614166   -5.28759878    h      1.000     0
         -5.02428054   10.42339876   -1.93061810    h      1.000     0
          8.31838214    8.26108966   -0.06677109    h      1.000     0
          4.01522629  -11.94421365   -3.35074951    h      1.000     0
          9.08169904   -9.22116715    2.41302596    h      1.000     0
         13.00207849    2.31491749    2.90982205    h      1.000     0
         10.85729929    6.45680509    3.44586710    h      1.000     0
          5.95634315  -12.39126578    0.91836193    h      1.000     0
        -12.19908945    6.01000643   -0.82572254    h      1.000     0
        -13.05961668    1.41179184   -0.42228647    h      1.000     0
         -9.81150103   -9.43506501   -1.30005183    h      1.000     0
         -2.95174002   12.59985992    1.67426549    h      1.000     0
          1.68035037   13.36225354    1.61639387    h      1.000     0
         -5.89347655  -11.60913836    0.10158531    h      1.000     0
          4.99044559   -3.37229713    1.76004555    c      6.000     0
         -0.76093402    6.38996007    2.38554806    c      6.000     0
          5.39828101   -3.43830005    6.30132280    c      6.000     0
         -0.36570287    6.33839279    6.92786105    c      6.000     0
         -6.78320793   -0.97470059    7.39519450    c      6.000     0
         -4.07408514   -5.56878195    7.10030126    c      6.000     0
         -4.47143726   -5.50953227    2.55779284    c      6.000     0
         -7.18220753   -0.91727600    2.85159197    c      6.000     0
          3.60648663   -5.47859459    6.43113032    c      6.000     0
         -3.00923442    5.74369228    7.15202612    c      6.000     0
          3.20084428   -5.41346698    1.88968022    c      6.000     0
         -3.40478532    5.79614543    2.60927694    c      6.000     0
         -6.52786506    1.73173939    7.40756796    c      6.000     0
         -1.98453246   -6.58509370    2.32748111    c      6.000     0
         -6.92541000    1.79060778    2.86403294    c      6.000     0
         -1.58931966   -6.64625433    6.86995924    c      6.000     0
          4.11414538    4.27479174    1.93507734    c      6.000     0
          5.48565014    1.93372044    1.78794547    c      6.000     0
          5.89933192    1.88420879    6.32514697    c      6.000     0
          4.52241641    4.22396044    6.47544271    c      6.000     0
          4.49135544   -1.95679177   -0.52329137    c      6.000     0
          0.10172829    5.48788539   -0.04501407    c      6.000     0
          5.29607114   -2.07531329    8.66946428    c      6.000     0
          0.90577897    5.37173869    9.14673308    c      6.000     0
         -5.91027911    2.55033188    0.44252078    c      6.000     0
         -5.10596474    2.43278455    9.63417943    c      6.000     0
         -0.96458533   -5.83503755   -0.09462877    c      6.000     0
         -0.16194478   -5.95435289    9.09627171    c      6.000     0
         -6.32418387   -1.83233350    0.42215347    c      6.000     0
         -5.51872979   -1.94830001    9.61428254    c      6.000     0
         -4.99120412   -4.09577110    0.27627939    c      6.000     0
         -4.18507489   -4.21032884    9.46929889    c      6.000     0
         -3.37311392    4.40724348    9.50781559    c      6.000     0
         -4.17854790    4.52522553    0.31567213    c      6.000     0
          2.39517529   -5.37868802    8.87993304    c      6.000     0
          1.59236931   -5.26505315   -0.31437003    c      6.000     0
          3.31114862    4.33028000    8.92379004    c      6.000     0
          4.73717364    0.65979942   -0.50825264    c      6.000     0
          5.54249165    0.54380368    8.68109159    c      6.000     0
          2.50607220    4.44923480   -0.26849867    c      6.000     0
          2.39427771   -3.13207600   -1.83357372    c      6.000     0
         -2.01513707    4.34616923   -1.35104733    c      6.000     0
         -0.95383722    4.18942697   10.77038185    c      6.000     0
          3.45139465   -3.28399704   10.29117128    c      6.000     0
          3.95554043    2.06202011   10.31529713    c      6.000     0
          2.89438838    2.21642683   -1.80112265    c      6.000     0
         -1.76931420   -4.46018585   10.73203493    c      6.000     0
         -2.83064790   -4.30728624   -1.38858337    c      6.000     0
         -5.55087366    0.31257894   -1.09032285    c      6.000     0
         -4.49181826    0.15864067   11.02789484    c      6.000     0
          2.16200643    0.90509332   11.87223531    c      6.000     0
          0.85682009    1.09486065   -3.04675248    c      6.000     0
         -0.76253579   -2.42674605   12.08532458    c      6.000     0
         -2.15330394   -0.06736938   12.23662616    c      6.000     0
         -2.06843200   -2.23763559   -2.83724992    c      6.000     0
         -3.45943442    0.12189091   -2.68965409    c      6.000     0
         -0.34598948    1.99190306   12.10492014    c      6.000     0
          1.90451767   -1.82609260   11.86011475    c      6.000     0
         -1.65095965    2.18165286   -2.81674541    c      6.000     0
          0.59949067   -1.63669470   -3.06298730    c      6.000     0
         -6.84718089   -2.35569387    5.09405224    c      6.000     0
         -5.43869098   -4.74203497    4.94049577    c      6.000     0
          6.16716154    0.57690065    3.99632352    c      6.000     0
          3.38414106    5.31098398    4.29930295    c      6.000     0
          0.84706043    6.40855444    4.53378931    c      6.000     0
          5.91043484   -2.18451267    3.98286744    c      6.000     0
         -6.33031549    3.12074737    5.11859271    c      6.000     0
         -0.40924547   -6.92113167    4.47424943    c      6.000     0
         -4.50144531    5.20377765    4.98603431    c      6.000     0
          2.28782661   -6.31282282    4.24574410    c      6.000     0
 
       center of nuclear mass  :    0.10939954    0.03044796   -0.70552390
       center of nuclear charge:    0.10724342    0.03031229   -0.70426789

              +--------------------------------------------------+
              |               basis set information              |
              +--------------------------------------------------+

              we will work with the 1s 3p 5d 7f 9g ... basis set
              ...i.e. with spherical basis functions...

   type   atoms  prim   cont   basis
   ---------------------------------------------------------------------------
    c      120     77     57   def2-QZVP   [7s4p3d2f1g|15s8p3d2f1g]
    s       10    105     70   def2-QZVP   [9s6p4d2f1g|20s14p4d2f1g]
    h       20     33     30   def2-QZVP   [4s3p2d1f|7s3p2d1f]
   ---------------------------------------------------------------------------
   total:  150  10950   8140
   ---------------------------------------------------------------------------

   total number of primitive shells          :   83
   total number of contracted shells         : 2460
   total number of cartesian basis functions :10200
   total number of SCF-basis functions       : 8140


 integral neglect threshold       :  0.33E-14
 integral storage threshold THIZE :  0.10E-04
 integral storage threshold THIME :         5

 RI-JK AUXILIARY BASIS SET information:

              we will work with the 1s 3p 5d 7f 9g ... basis set
              ...i.e. with spherical basis functions...

   type   atoms  prim   cont   basis
   ---------------------------------------------------------------------------
    c      120     97     75   def2-QZVP   [10s8p5d1f1g|14s10p6d2f1g]
    s       10    139    128   def2-QZVP   [13s11p9d4f1g|16s12p10d4f1g]
    h       20     20     18   def2-QZVP   [2s2p2d|4s2p2d]
   ---------------------------------------------------------------------------
   total:  150  13430  10640
   ---------------------------------------------------------------------------

   total number of primitive shells          :   84
   total number of contracted shells         : 3500
   total number of cartesian basis functions :12630
   total number of SCF-basis functions       :10640


 symmetry group of the molecule :   c1 

 the group has the following generators :
   c1(z)

    1 symmetry operations found

 there are 1 real representations :   a   

 maximum number of shells which are related by symmetry :  1


    mo occupation :
   irrep   mo's   occupied
    a     8140      450
 
 number of basis functions   :                   8140
 number of occupied orbitals :                    450
 

 biggest AO integral is expected to be    11.378194954
  
           ------------------------
               RI-JK - INFORMATION
           ------------------------
 Contributions to RI integral batches: 
  neglected integral batches:               2016157
  direct contribution:                      1010873
  memory contribution:                     0
 Memory core needed for (P|Q) and Cholesky    864 MByte
 Memory core minimum needed except of (P|Q)    36 MByte
 Total minimum memory core needed (sum)       900 MByte
  
 ****************************************
 Memory allocated for RI-J   900 MByte
 ****************************************
                                            
 total memory allocated for calculation of  (Q|P)**(-1/2) : 1296 MiB

  forming (P|Q)**(-1/2) 
 eigenvalues of original matrix 
 smallest =0.3757819231289E-10  largest = 182.8640327673    
  The symmetry information takes                      1  MB

          ------------------------
          nuclear repulsion energy  :   36074.2478674    
          ------------------------


         -----------------
         -S,T+V- integrals
         -----------------

 1e-integrals will be neglected if expon. factor < 0.327643E-15
 
   Difference densities algorithm switched on.
   The maximal number of linear combinations of
   difference densities is                    20 .

 DIIS switched on: error vector is FDS-SDF
 Max. Iterations for DIIS is     :   5
 DIIS matrix (see manual) 
    Scaling factor of diagonals  :  1.200
    threshold for scaling factor :  0.000

 scf convergence criterion : increment of total energy < .1000000D-08
                  and increment of one-electron energy < .1000000D-05

  MOs are in ASCII format !


 automatic virtual orbital shift switched on 
      shift if e(lumo)-e(homo) < 0.10000000    


 reading orbital data $scfmo  from file mos
 orbital characterization : scfconv=9

 DSCF restart information will be dumped onto file mos


 Starting SCF iterations

 
 BLOCKING OF MOS FOR RI-K
 
 
 occupied MOs partitioned into blocks of maximum length 21
 this requires 17394 MiB core memory.
 
            MULTIPLE PASS Statistics 
 ----------------------------------------------------
  pass       irrep     lambda      batch : MO  to  MO
 ----------------------------------------------------
   1       1  ->  1    1  -> 21             1  ->  21
   2       1  ->  1   22  -> 42            22  ->  42
   3       1  ->  1   43  -> 63            43  ->  63
   4       1  ->  1   64  -> 84            64  ->  84
   5       1  ->  1   85  ->105            85  -> 105
   6       1  ->  1  106  ->126           106  -> 126
   7       1  ->  1  127  ->147           127  -> 147
   8       1  ->  1  148  ->168           148  -> 168
   9       1  ->  1  169  ->189           169  -> 189
  10       1  ->  1  190  ->210           190  -> 210
  11       1  ->  1  211  ->231           211  -> 231
  12       1  ->  1  232  ->252           232  -> 252
  13       1  ->  1  253  ->273           253  -> 273
  14       1  ->  1  274  ->294           274  -> 294
  15       1  ->  1  295  ->315           295  -> 315
  16       1  ->  1  316  ->336           316  -> 336
  17       1  ->  1  337  ->357           337  -> 357
  18       1  ->  1  358  ->378           358  -> 378
  19       1  ->  1  379  ->399           379  -> 399
  20       1  ->  1  400  ->420           400  -> 420
  21       1  ->  1  421  ->441           421  -> 441
  22       1  ->  1  442  ->450           442  -> 450



 ENERGY & DENSITY CONVERGED !


 ITERATION  ENERGY          1e-ENERGY        2e-ENERGY     RMS[dD(SAO)]   TOL
   1  -8531.1931681349    -83712.902879     39107.461843    0.000D+00 0.327D-14
                           RI-K = -879.432716237     Coul =  39986.8945593    
                            current damping = 0.700
 
          max. resid. norm for Fia-block=  4.107D-01 for orbital      5a         
          max. resid. fock norm         =  1.007D+00 for orbital   8140a         

 End of SCF iterations

   convergence criteria satisfied after    1 iterations


                  ------------------------------------------ 
                 |  total energy      =  -8531.19316813487  |
                  ------------------------------------------ 
                 :  kinetic energy    =   8535.37318680257  :
                 :  potential energy  = -17066.56635493744  :
                 :  virial theorem    =      2.00048996882  :
                 :  wavefunction norm =      1.00000000000  :
                  .......................................... 


 <geterg> : there is no data group $energy 


 <skperg> : $end is missing 


 orbitals $scfmo  will be written to file mos

    irrep                446a        447a        448a        449a        450a   
 eigenvalues H         -0.26244    -0.27700    -0.27588    -0.26836    -0.26642
            eV          -7.1415     -7.5375     -7.5070     -7.3026     -7.2497
 occupation              2.0000      2.0000      2.0000      2.0000      2.0000 

    irrep                451a        452a        453a        454a        455a   
 eigenvalues H         -0.01580    -0.01527    -0.01780     0.01575     0.02342
            eV          -0.4299     -0.4156     -0.4843      0.4285      0.6373
 
 
 
 
 ==============================================================================
                           electrostatic moments
 ==============================================================================

 reference point for electrostatic moments:    0.00000   0.00000   0.00000

 
              nuc           elec       ->  total
 ------------------------------------------------------------------------------
                          charge      
 ------------------------------------------------------------------------------
         900.000000    -900.000000       0.000000
 
 ------------------------------------------------------------------------------
                       dipole moment  
 ------------------------------------------------------------------------------
   x      96.519079     -96.828871      -0.309792
   y      27.281060     -27.392244      -0.111184
   z    -633.841097     635.775508       1.934411
 
   | dipole moment | =     1.9622 a.u. =     4.9874 debye 
 
 ------------------------------------------------------------------------------
                     quadrupole moment
 ------------------------------------------------------------------------------
  xx   28597.945444  -29174.106549    -576.161105
  yy   28781.015926  -29356.287168    -575.271242
  zz   35571.722468  -36192.525434    -620.802966
  xy      17.642492     -17.886881      -0.244388
  xz     433.418882    -427.585674       5.833208
  yz     -56.406838      58.579654       2.172816
 
     1/3  trace=    -590.745104
     anisotropy=      46.366305
 
 ==============================================================================
 


    ------------------------------------------------------------------------
         total  cpu-time :   6 days  0 hours 37 minutes and  4 seconds
         total wall-time :   6 days  1 hours 37 minutes and 25 seconds
    ------------------------------------------------------------------------

   ****  ridft : all done  ****


    2017-11-21 10:07:39.497 

