
   OpenMP run-time library returned nthreads =  8
 operating system is UNIX !

 dscf (c-7-33) : TURBOMOLE V7.3 ( 22142 ) 4 Jul 2018 at 18:12:42
 Copyright (C) 2018 TURBOMOLE GmbH, Karlsruhe


    2019-04-02 13:59:36.746 



                             d s c f - program

                   idea & directorship : reinhart ahlrichs
                   program development : marco haeser
                                         michael baer
                           dft version : oliver treutler


                          quantum chemistry group
                          universitaet  karlsruhe
                                  germany




                          References             
                                                 
          TURBOMOLE:                             
              R. Ahlrichs, M. Baer, M. Haeser, H. Horn, and
              C. Koelmel
              Electronic structure calculations on workstation
              computers: the program system TURBOMOLE
              Chem. Phys. Lett. 162: 165 (1989)
          Density Functional:                              
              O. Treutler and R. Ahlrichs                      
              Efficient Molecular Numerical Integration Schemes
              J. Chem. Phys. 102: 346 (1995)                   
          Parallel Version:                                
              Performance of parallel TURBOMOLE for Density    
              Functional Calculations                          
              M. v. Arnim and R. Ahlrichs                      
              J. Comp. Chem. 19: 1746 (1998)                   
                                         




              +--------------------------------------------------+
              | Atomic coordinate, charge and isotop information |
              +--------------------------------------------------+

                    atomic coordinates            atom    charge  isotop
          0.01106371    0.14201325    7.14212836    c      6.000     0
          0.00537727    0.10883807    5.13131707    h      1.000     0
          0.01798095    0.17901570    9.43318730    c      6.000     0
          0.02386255    0.21146783   11.43855902    h      1.000     0
 
       center of nuclear mass  :    0.01452988    0.16048648    8.28744725
       center of nuclear charge:    0.01453627    0.16046283    8.28726929

              +--------------------------------------------------+
              |               basis set information              |
              +--------------------------------------------------+

              we will work with the 1s 3p 5d 7f 9g ... basis set
              ...i.e. with spherical basis functions...

   type   atoms  prim   cont   basis
   ---------------------------------------------------------------------------
    c        2     77     57   def2-QZVP   [7s4p3d2f1g|15s8p3d2f1g]
    h        2     33     30   def2-QZVP   [4s3p2d1f|7s3p2d1f]
   ---------------------------------------------------------------------------
   total:    4    220    174
   ---------------------------------------------------------------------------

   total number of primitive shells          :   42
   total number of contracted shells         :   54
   total number of cartesian basis functions :  214
   total number of SCF-basis functions       :  174


 integral neglect threshold       :  0.16E-12
 integral storage threshold THIZE :  0.10E-04
 integral storage threshold THIME :         5


 DENSITY CONVERGENCE CHECK SWITCHED ON !
 SCF CONVERGENCE IF RMS(delta[D]) <     0.1000000000E-06


 symmetry group of the molecule :   c1 

 the group has the following generators :
   c1(z)

    1 symmetry operations found

 there are 1 real representations :   a   

 maximum number of shells which are related by symmetry :  1


    mo occupation :
   irrep   mo's   occupied
    a      174        7
 
 number of basis functions   :                    174
 number of occupied orbitals :                      7
 

 automatic virtual orbital shift switched on 
      shift if e(lumo)-e(homo) < 0.10000000    


          ------------------------
          nuclear repulsion energy  :   24.6355454446    
          ------------------------


         -----------------
         -S,T+V- integrals
         -----------------

 1e-integrals will be neglected if expon. factor < 0.156166E-13
 
   Difference densities algorithm switched on.
   The maximal number of linear combinations of
   difference densities is                    20 .

 DIIS switched on: error vector is FDS-SDF
 Max. Iterations for DIIS is     :   5
 DIIS matrix (see manual) 
    Scaling factor of diagonals  :  1.200
    threshold for scaling factor :  0.000

 scf convergence criterion : increment of total energy < .1000000D-08
                  and increment of one-electron energy < .1000000D-05

  MOs are in ASCII format !


 reading orbital data $scfmo  from file mos
 orbital characterization : scfconv=9

 DSCF restart information will be dumped onto file mos

 
                                              current damping :  0.700
 ITERATION  ENERGY          1e-ENERGY        2e-ENERGY     RMS[dD(SAO)]   TOL
   1  -76.837012383908    -151.69682279     50.224264957    0.000D+00 0.156D-12
          max. resid. norm for Fia-block=  2.007D-01 for orbital      2a         
          max. resid. fock norm         =  6.417D-01 for orbital    172a         
          Delta Eig. =    46.9752188136 eV 
 
                                              current damping :  0.650
 ITERATION  ENERGY          1e-ENERGY        2e-ENERGY     RMS[dD(SAO)]   TOL
   2  -76.850945834002    -151.43429837     49.947807089    0.105D-02 0.102D-12
          Norm of current diis error: 0.38064    
          max. resid. norm for Fia-block=  8.977D-02 for orbital      2a         
          max. resid. fock norm         =  2.576D-01 for orbital    172a         
          Delta Eig. =    19.0759844992 eV 
 
                                              current damping :  0.600
 ITERATION  ENERGY          1e-ENERGY        2e-ENERGY     RMS[dD(SAO)]   TOL
   3  -76.853499631634    -151.44026212     49.951217040    0.449D-03 0.768D-13
          Norm of current diis error: 0.15765    
          max. resid. norm for Fia-block=  3.639D-02 for orbital      2a         
          max. resid. fock norm         =  1.032D-01 for orbital    172a         
          Delta Eig. =     7.9827810897 eV 
 
                                              current damping :  0.650
 ITERATION  ENERGY          1e-ENERGY        2e-ENERGY     RMS[dD(SAO)]   TOL
   4  -76.853986845343    -151.42090141     49.931369122    0.199D-03 0.667D-13
          Norm of current diis error: 0.62022E-01
          max. resid. norm for Fia-block=  1.378D-02 for orbital      2a         
          max. resid. fock norm         =  3.871D-02 for orbital    172a         
          Delta Eig. =     2.9052930234 eV 
 
                                              current damping :  0.500
 ITERATION  ENERGY          1e-ENERGY        2e-ENERGY     RMS[dD(SAO)]   TOL
   5  -76.854064465361    -151.41503364     49.925423732    0.750D-04 0.613D-13
          Norm of current diis error: 0.25548E-01
          max. resid. norm for Fia-block=  5.438D-03 for orbital      2a         
          max. resid. fock norm         =  1.527D-02 for orbital    172a         
 mo-orthogonalization: Cholesky decomposition
          Delta Eig. =     1.2620794808 eV 
 
                                              current damping :  0.350
 ITERATION  ENERGY          1e-ENERGY        2e-ENERGY     RMS[dD(SAO)]   TOL
   6  -76.854079210953    -151.41250652     49.922881864    0.337D-04 0.564D-13
          Norm of current diis error: 0.90938E-02
          max. resid. norm for Fia-block=  1.806D-03 for orbital      2a         
          max. resid. fock norm         =  5.097D-03 for orbital    172a         
          Delta Eig. =     0.4691931832 eV 
 
                                              current damping :  0.200
 ITERATION  ENERGY          1e-ENERGY        2e-ENERGY     RMS[dD(SAO)]   TOL
   7  -76.854081379841    -151.41149929     49.921872464    0.132D-04 0.516D-13
          Norm of current diis error: 0.26444E-02
          max. resid. norm for Fia-block=  4.656D-04 for orbital      2a         
          max. resid. fock norm         =  1.315D-03 for orbital    172a         
          Delta Eig. =     0.1360702354 eV 
 
                                              current damping :  0.050
 ITERATION  ENERGY          1e-ENERGY        2e-ENERGY     RMS[dD(SAO)]   TOL
   8  -76.854081605453    -151.41127655     49.921649503    0.426D-05 0.471D-13
          Norm of current diis error: 0.57261E-03
          max. resid. norm for Fia-block=  7.588D-05 for orbital      2a         
          max. resid. fock norm         =  2.198D-04 for orbital    172a         
          Delta Eig. =     0.0262349955 eV 
 
                                              current damping :  0.050
 ITERATION  ENERGY          1e-ENERGY        2e-ENERGY     RMS[dD(SAO)]   TOL
   9  -76.854081620898    -151.41119337     49.921566303    0.107D-05 0.435D-13
          Norm of current diis error: 0.94296E-04
          max. resid. norm for Fia-block=  1.221D-05 for orbital      5a         
          max. resid. fock norm         =  1.229D-05 for orbital      5a         
          Delta Eig. =     0.0011530364 eV 
 
                                              current damping :  0.050
 ITERATION  ENERGY          1e-ENERGY        2e-ENERGY     RMS[dD(SAO)]   TOL
  10  -76.854081621568    -151.41119316     49.921566089    0.201D-06 0.415D-13
          Norm of current diis error: 0.22853E-04
          max. resid. norm for Fia-block=  3.371D-06 for orbital      5a         
          max. resid. fock norm         =  3.384D-06 for orbital      5a         
 mo-orthogonalization: Cholesky decomposition
          Delta Eig. =     0.0000922698 eV 

 DENSITY CONVERGED !

 
                                              current damping :  0.050
 ITERATION  ENERGY          1e-ENERGY        2e-ENERGY     RMS[dD(SAO)]   TOL
  11  -76.854081621615    -151.41118707     49.921560004    0.610D-07 0.445D-13
          Norm of current diis error: 0.58069E-05
          max. resid. norm for Fia-block=  8.914D-07 for orbital      5a         
          max. resid. fock norm         =  9.123D-07 for orbital      5a         
          Delta Eig. =     0.0000197593 eV 

 ENERGY & DENSITY CONVERGED !

 
                                              current damping :  0.100
 ITERATION  ENERGY          1e-ENERGY        2e-ENERGY     RMS[dD(SAO)]   TOL
  12  -76.854081621618    -151.41118818     49.921561112    0.154D-07 0.454D-13
          max. resid. norm for Fia-block=  1.217D-07 for orbital      6a         
          max. resid. fock norm         =  2.221D-07 for orbital    173a         

 convergence criteria satisfied after    12 iterations


                  ------------------------------------------ 
                 |  total energy      =    -76.85408162162  |
                  ------------------------------------------ 
                 :  kinetic energy    =     76.65283868350  :
                 :  potential energy  =   -153.50692030512  :
                 :  virial theorem    =      1.99738149316  :
                 :  wavefunction norm =      1.00000000000  :
                  .......................................... 


 orbitals $scfmo  will be written to file mos

    irrep                  3a          4a          5a          6a          7a   
 eigenvalues H         -1.02753    -0.76909    -0.68125    -0.40898    -0.40898
            eV         -27.9608    -20.9280    -18.5380    -11.1290    -11.1290
 occupation              2.0000      2.0000      2.0000      2.0000      2.0000 

    irrep                  8a          9a         10a         11a         12a   
 eigenvalues H          0.12177     0.12547     0.14344     0.14344     0.21539
            eV           3.3136      3.4141      3.9033      3.9033      5.8610
 
 
 
 
 ==============================================================================
                           electrostatic moments
 ==============================================================================

 reference point for electrostatic moments:    0.00000   0.00000   0.00000

 
              nuc           elec       ->  total
 ------------------------------------------------------------------------------
                          charge      
 ------------------------------------------------------------------------------
          14.000000     -14.000000      -0.000000
 
 ------------------------------------------------------------------------------
                       dipole moment  
 ------------------------------------------------------------------------------
   x       0.203508      -0.203461       0.000046
   y       2.246480      -2.246650      -0.000170
   z     116.021770    -116.022996      -0.001226
 
   | dipole moment | =     0.0012 a.u. =     0.0031 debye 
 
 ------------------------------------------------------------------------------
                     quadrupole moment
 ------------------------------------------------------------------------------
  xx       0.003273     -10.462024     -10.458752
  yy       0.369851     -10.827242     -10.457392
  zz     997.141167   -1002.092990      -4.951823
  xy       0.034372      -0.034103       0.000268
  xz       1.792362      -1.775798       0.016564
  yz      19.195163     -19.106828       0.088335
 
     1/3  trace=      -8.622655
     anisotropy=       5.508449
 
 ==============================================================================
 


    ------------------------------------------------------------------------
         total  cpu-time :  1 minutes and 27 seconds
         total wall-time :  15.02 seconds
    ------------------------------------------------------------------------

   ****  dscf : all done  ****


    2019-04-02 13:59:51.754 

