
   OpenMP run-time library returned nthreads = 28

 rirpa (c-15-37) : TURBOMOLE V7.3.1 () 25 Feb 2019 at 10:13:53
 Copyright (C) 2019 TURBOMOLE GmbH, Karlsruhe


    2019-11-27 02:09:15.367 

 
 
    *************************************************************************
    *************************** PROGRAM RIRPA *******************************
    ******                                                             ******
    ******              H. Eshuis, J. E. Bates and F. Furche           ******
    ******                                                             ******
    ****** Nov 2011                                                    ******
    ****** Copyright TURBOMOLE GmbH                                    ******
    *************************************************************************
    
    
                                References:                                  
    
                   RIRPA:                                                    
                     H. Eshuis, J. Yarkony and F. Furche                     
                     Fast computation of molecular random phase              
                     approximation correlation energies using resolution     
                     of the identity imaginary frequency integration         
                     J. Chem. Phys. 132: 234114 (2010)                       
    
                     H. Eshuis, J. E. Bates and F. Furche                    
                     Electron correlation methods based on                   
                     the random phase approximation                          
                     Theor. Chem. Acc.  131: 1084 (2012)                     
    
                   TWO-COMPONENT RIRPA:                                      
                     M. Kuehn                                                
                     Correlation energies from the                           
                     two-component random-phase approximation                
                     J. Chem. Theory Comput. 10: 623 (2014)                  
    
                   RIRPA GRADIENTS:                                          
                     Asbjoern M. Burow, Jefferson E. Bates, Filipp Furche*,  
                     and Henk Eshuis                                         
                     Analytical First-Order Molecular Properties and Forces  
                     within the Adiabatic Connection Random Phase            
                     Approximation                                           
                     J. Chem. Theory Comput. 10: 180 (2014)                  
    
    
    
      ... OpenMP parallelization enabled, threads:   28

   *-----------------------------------------------------------------------*
   |                     program will use 28 thread(s)                     |
   *-----------------------------------------------------------------------*
 
                FOUND RI-J FLAG
 
  HF exact exchange energy will be computed using RI-J.
 
  The HXX energy will NOT be computed due to nohxx option. 
 


              +--------------------------------------------------+
              | Atomic coordinate, charge and isotop information |
              +--------------------------------------------------+

                    atomic coordinates            atom    charge  isotop
         -1.77863148    1.49296180    0.02214552    n      0.000     0
         -1.74375469   -1.04384341    0.06685615    c      0.000     0
          0.10816889   -1.91918319    0.09704672    h      0.000     0
         -3.92405235   -2.51903919    0.07424801    c      0.000     0
         -3.77289293   -4.55534684    0.11126179    h      0.000     0
         -6.26692322   -1.32911912    0.03325738    c      0.000     0
         -7.99651765   -2.41711901    0.03740480    h      0.000     0
         -6.32849493    1.29827739   -0.01339052    c      0.000     0
         -8.09831579    2.31700180   -0.04659875    h      0.000     0
         -4.04987930    2.61279878   -0.01679976    c      0.000     0
         -4.04042296    4.65940812   -0.05250221    h      0.000     0
          4.78707557   -1.79529520    0.08034717    n      7.000     0
          7.05810840   -2.91623583    0.08427750    c      6.000     0
          7.04823675   -4.96273828    0.12564203    h      1.000     0
          9.33699762   -1.60295448    0.03892146    c      6.000     0
         11.10660960   -2.62252821    0.04476829    h      1.000     0
          9.27592619    1.02434018   -0.01351222    c      6.000     0
         11.00573413    2.11140713   -0.04976002    h      1.000     0
          6.93326988    2.21540835   -0.01819327    c      6.000     0
          6.78252126    4.25169896   -0.05804488    h      1.000     0
          4.75268925    0.74140379    0.02941586    c      6.000     0
          2.90092695    1.61759909    0.02627354    h      1.000     0
 
       center of nuclear mass  :    1.50436021   -0.15177249    0.03069996
       center of nuclear charge:    7.05941680   -0.36666323    0.03278012
              +-------------------------------------------------+
              |        Rotational Constants Section             |
              +-------------------------------------------------+
                                   Center of Mass [a.u]:
               1.50436020568413        -0.15177248613878         0.03069996290552
                     Principal Moments of Inertia [a.u.]
             603.41523564139470      5427.34416017194235      6030.67019625667490
                       Rotational constants A,B,C [a.u.]
               0.00082861679730         0.00009212609063         0.00008290952477
                     Rotational constants A,B,C [cm**-1]
               0.09976494284647         0.01109192354858         0.00998225479712
                        Rotational constants A,B,C [MHz]
            2990.87774381720192       332.52750245764480       299.26047020118745

   * BASIS SET information:

              +--------------------------------------------------+
              |               basis set information              |
              +--------------------------------------------------+

              we will work with the 1s 3p 5d 7f 9g ... basis set
              ...i.e. with spherical basis functions...

   type   atoms  prim   cont   basis
   ---------------------------------------------------------------------------
    n        2     77     55   cc-pVQZ   [5s4p3d2f1g|21s6p3d2f1g]
    c       10     77     55   cc-pVQZ   [5s4p3d2f1g|21s6p3d2f1g]
    h       10     32     30   cc-pVQZ   [4s3p2d1f|6s3p2d1f]
   ---------------------------------------------------------------------------
   total:   22   1244    960
   ---------------------------------------------------------------------------

   total number of primitive shells          :   78
   total number of contracted shells         :  280
   total number of cartesian basis functions : 1190
   total number of SCF-basis functions       :  960


   * AUXILIARY BASIS SET information:

              +--------------------------------------------------+
              |               basis set information              |
              +--------------------------------------------------+

              we will work with the 1s 3p 5d 7f 9g ... basis set
              ...i.e. with spherical basis functions...

   type   atoms  prim   cont   basis
   ---------------------------------------------------------------------------
    n        2    132    132   cc-pVQZ   [8s7p6d5f3g1h|8s7p6d5f3g1h]
    c       10    132    132   cc-pVQZ   [8s7p6d5f3g1h|8s7p6d5f3g1h]
    h       10     55     55   cc-pVQZ   [5s4p3d2f1g|5s4p3d2f1g]
   ---------------------------------------------------------------------------
   total:   22   2134   2134
   ---------------------------------------------------------------------------

   total number of primitive shells          :   75
   total number of contracted shells         :  510
   total number of cartesian basis functions : 2872
   total number of SCF-basis functions       : 2134


   * RIJ AUXILIARY BASIS SET information:

              +--------------------------------------------------+
              |               basis set information              |
              +--------------------------------------------------+

              we will work with the 1s 3p 5d 7f 9g ... basis set
              ...i.e. with spherical basis functions...

   type   atoms  prim   cont   basis
   ---------------------------------------------------------------------------
    n        2     70     49   cc-pVQZ   [6s4p3d1f1g|12s5p4d2f1g]
    c       10     70     49   cc-pVQZ   [6s4p3d1f1g|12s5p4d2f1g]
    h       10     16     11   cc-pVQZ   [3s1p1d|5s2p1d]
   ---------------------------------------------------------------------------
   total:   22   1000    698
   ---------------------------------------------------------------------------

   total number of primitive shells          :   56
   total number of contracted shells         :  230
   total number of cartesian basis functions :  852
   total number of SCF-basis functions       :  698

  No keyword $dft found! - HARTREE FOCK CALCULATION

 reading orbital data $scfmo  from file mos
 orbital characterization : scfconv=9

 integral neglect threshold       :  0.32E+02

 scfconv                     9

 MAXIMUM CORE MEMORY WHICH CAN BE ALLOCATED DYNAMICALLY = 140000 MiB
              ( or 18350080000 double words per process)


 there are 1 real representations :   a   

 maximum number of shells which are related by symmetry :  1

 time elapsed for calculating density matrices :   0.095 sec

     total memory allocated for calculation of (Q|P)**(-1/2) : 53 MiB


     calculation of (P|Q) ...
     time in lp2sym        cpu:  4.52 sec    wall:  0.16 sec    ratio: 27.9


     calculation of the Cholesky decomposition of (P|Q)**(-1) ...
     time in invmetri      cpu: 22.32 sec    wall:  0.95 sec    ratio: 23.5

   threshold for RMS(d[D]) in SCF was     :  0.10E-06
   integral neglect threshold             :  0.12E-13
   derivative integral neglect threshold  :  0.10E-06


 setting up bound for integral derivative estimation

 increment for numerical differentiation : 0.00050000
 total memory allocated for calculation of (Q|P)**(-1/2) : 53 MiB
 Dividing biap into                   4577  block chunks,
 using                    15 MiB per block
 Reserved                  69973 MiB for BLAS routines
 Estimated total memory usage:                 139981 MiB
 number of passes for ispin    1
 =    1
 
 Number of eigenvalues < 6e-3:                      0
 
 
            -----------------------------
            Complex frequency integration
            -----------------------------
 
 Number of Clenshaw-Curtis nodes:                    100
 Optimized scaling parameter    :    1.73588078978739     
 Sensitivity measure            :  -2.090257827935815E-011
 
 Done with rirpa frequency point #                     1
 Done with rirpa frequency point #                     2
 Done with rirpa frequency point #                     3
 Done with rirpa frequency point #                     4
 Done with rirpa frequency point #                     5
 Done with rirpa frequency point #                     6
 Done with rirpa frequency point #                     7
 Done with rirpa frequency point #                     8
 Done with rirpa frequency point #                     9
 Done with rirpa frequency point #                    10
 Done with rirpa frequency point #                    11
 Done with rirpa frequency point #                    12
 Done with rirpa frequency point #                    13
 Done with rirpa frequency point #                    14
 Done with rirpa frequency point #                    15
 Done with rirpa frequency point #                    16
 Done with rirpa frequency point #                    17
 Done with rirpa frequency point #                    18
 Done with rirpa frequency point #                    19
 Done with rirpa frequency point #                    20
 Done with rirpa frequency point #                    21
 Done with rirpa frequency point #                    22
 Done with rirpa frequency point #                    23
 Done with rirpa frequency point #                    24
 Done with rirpa frequency point #                    25
 Done with rirpa frequency point #                    26
 Done with rirpa frequency point #                    27
 Done with rirpa frequency point #                    28
 Done with rirpa frequency point #                    29
 Done with rirpa frequency point #                    30
 Done with rirpa frequency point #                    31
 Done with rirpa frequency point #                    32
 Done with rirpa frequency point #                    33
 Done with rirpa frequency point #                    34
 Done with rirpa frequency point #                    35
 Done with rirpa frequency point #                    36
 Done with rirpa frequency point #                    37
 Done with rirpa frequency point #                    38
 Done with rirpa frequency point #                    39
 Done with rirpa frequency point #                    40
 Done with rirpa frequency point #                    41
 Done with rirpa frequency point #                    42
 Done with rirpa frequency point #                    43
 Done with rirpa frequency point #                    44
 Done with rirpa frequency point #                    45
 Done with rirpa frequency point #                    46
 Done with rirpa frequency point #                    47
 Done with rirpa frequency point #                    48
 Done with rirpa frequency point #                    49
 Done with rirpa frequency point #                    50
 Done with rirpa frequency point #                    51
 Done with rirpa frequency point #                    52
 Done with rirpa frequency point #                    53
 Done with rirpa frequency point #                    54
 Done with rirpa frequency point #                    55
 Done with rirpa frequency point #                    56
 Done with rirpa frequency point #                    57
 Done with rirpa frequency point #                    58
 Done with rirpa frequency point #                    59
 Done with rirpa frequency point #                    60
 Done with rirpa frequency point #                    61
 Done with rirpa frequency point #                    62
 Done with rirpa frequency point #                    63
 Done with rirpa frequency point #                    64
 Done with rirpa frequency point #                    65
 Done with rirpa frequency point #                    66
 Done with rirpa frequency point #                    67
 Done with rirpa frequency point #                    68
 Done with rirpa frequency point #                    69
 Done with rirpa frequency point #                    70
 Done with rirpa frequency point #                    71
 Done with rirpa frequency point #                    72
 Done with rirpa frequency point #                    73
 Done with rirpa frequency point #                    74
 Done with rirpa frequency point #                    75
 Done with rirpa frequency point #                    76
 Done with rirpa frequency point #                    77
 Done with rirpa frequency point #                    78
 Done with rirpa frequency point #                    79
 Done with rirpa frequency point #                    80
 Done with rirpa frequency point #                    81
 Done with rirpa frequency point #                    82
 Done with rirpa frequency point #                    83
 Done with rirpa frequency point #                    84
 Done with rirpa frequency point #                    85
 Done with rirpa frequency point #                    86
 Done with rirpa frequency point #                    87
 Done with rirpa frequency point #                    88
 Done with rirpa frequency point #                    89
 Done with rirpa frequency point #                    90
 Done with rirpa frequency point #                    91
 Done with rirpa frequency point #                    92
 Done with rirpa frequency point #                    93
 Done with rirpa frequency point #                    94
 Done with rirpa frequency point #                    95
 Done with rirpa frequency point #                    96
 Done with rirpa frequency point #                    97
 Done with rirpa frequency point #                    98
 Done with rirpa frequency point #                    99
 Done with rirpa frequency point #                   100
 


 RI-RPA correlation energy: -0.1230591096777885E+01
 
 
 HXX Energy calculation skipped due to nohxx option
 

                  --------------------------------------------------- 
                 |  HXX+RIRPA total energy     =     -1.23059109678  |
                  ---------------------------------------------------- 
                 :  RIRPA correlation energy   =     -1.23059109678  :
                 :  HXX total energy           =      0.00000000000  :
                 :  Hartree energy             =      0.00000000000  :
                 :  Exact Exchange energy      =      0.00000000000  :
                  .................................................... 


    ------------------------------------------------------------------------
    Rirpa profiling                cpu                    wall         ratio
    ------------------------------------------------------------------------
    module                         sec     %               sec     %
    ------------------------------------------------------------------------
    RIRPA                      5902.9  100.00          229.8  100.00  25.7
    STARTUP                       5.9    0.10            1.2    0.51   5.0
    riccmos                      12.1    0.20            1.3    0.58   9.0
    riccaux                      27.2    0.46            1.1    0.49  24.2
    riccbound                    14.4    0.24            9.2    4.02   1.6
    ccmkbaoi                    127.7    2.16            5.1    2.20  25.3
    cc3idxnrm                     7.5    0.13            0.3    0.13  26.1
    ecrpa                      5706.1   96.67          211.5   92.03  27.0
    tread                       489.5    8.29           24.2   10.51  20.3
    tqbuild                    4470.9   75.74          160.3   69.76  27.9
    trpaln                      384.6    6.52           13.8    5.99  27.9
    ------------------------------------------------------------------------
    sum                       17148.8  290.51          657.8  286.23  26.1
    ------------------------------------------------------------------------


    ------------------------------------------------------------------------
         total  cpu-time :  1 hours 38 minutes and 24 seconds
         total wall-time :  3 minutes and 50 seconds
    ------------------------------------------------------------------------

   ****  rirpa : all done  ****


    2019-11-27 02:13:05.194 

