
   OpenMP run-time library returned nthreads =  8

 ricc2 (c-16-23.local) : TURBOMOLE V7.2 ( 21471 ) 11 Oct 2017 at 17:04:51
 Copyright (C) 2017 TURBOMOLE GmbH, Karlsruhe


    2018-04-03 16:59:28.385 



                              R I C C 2 - PROGRAM

                          the quantum chemistry groups
                             at the universities in
                           Karlsruhe, Bochum & Mainz
                                   Germany



   *-----------------------------------------------------------------------*
   |                     program will use  8 thread(s)                     |
   *-----------------------------------------------------------------------*


              +--------------------------------------------------+
              | Atomic coordinate, charge and isotop information |
              +--------------------------------------------------+

                    atomic coordinates            atom    charge  isotop
          0.06516788    0.04206372   -3.95980038    c      6.000     0
         -0.15965863    0.01591327   -1.20830832    c      6.000     0
         -2.17088749    0.00308335   -5.46184241    c      6.000     0
          1.66741497    0.01568181    3.05310968    c      6.000     0
         -0.82042858   -0.04088871    4.14885968    c      6.000     0
         -2.64782368   -0.04309042   -0.09720690    c      6.000     0
         -2.91660748   -0.06839276    2.52538836    c      6.000     0
          1.92109393    0.04324275    0.40572280    c      6.000     0
         -1.97495884    0.02510143   -8.12201863    c      6.000     0
          2.41232968    0.10414813   -5.21746088    c      6.000     0
          3.79792700    0.04055789    4.69417651    c      6.000     0
         -1.06238989   -0.06871054    6.82834789    c      6.000     0
         -4.83380415   -0.07787301   -1.70690100    c      6.000     0
         -4.60706935   -0.05763725   -4.26413561    c      6.000     0
          2.56417379    0.12624233   -7.83370976    c      6.000     0
          0.35591975    0.08584843   -9.30458090    c      6.000     0
          1.03867920   -0.04361768    8.35411334    c      6.000     0
          3.49495139    0.01120853    7.27538433    c      6.000     0
          3.82397366    0.08548265   -0.36159971    h      1.000     0
          4.15173799    0.13649263   -4.13324592    h      1.000     0
         -4.80885819   -0.11250934    3.32820749    h      1.000     0
         -6.68876444   -0.12287835   -0.82554066    h      1.000     0
         -6.28058529   -0.08813984   -5.45575289    h      1.000     0
         -3.70413873   -0.00824893   -9.23284523    h      1.000     0
          5.68068792    0.08254973    3.87263669    h      1.000     0
         -2.94932636   -0.11066661    7.64217141    h      1.000     0
          4.40577015    0.17463630   -8.74005550    h      1.000     0
          5.14231722    0.02979874    8.50039452    h      1.000     0
          0.83243878   -0.06566648   10.39832945    h      1.000     0
          0.47577365    0.10204617  -11.35478197    h      1.000     0
 
       center of nuclear mass  :   -0.20356520    0.00639323   -0.54846879
       center of nuclear charge:   -0.19312330    0.00650153   -0.54756046

              +--------------------------------------------------+
              |               basis set information              |
              +--------------------------------------------------+

              we will work with the 1s 3p 5d 7f 9g ... basis set
              ...i.e. with spherical basis functions...

   type   atoms  prim   cont   basis
   ---------------------------------------------------------------------------
    c       18     50     30   cc-pVTZ   [4s3p2d1f|18s5p2d1f]
    h       12     16     14   cc-pVTZ   [3s2p1d|5s2p1d]
   ---------------------------------------------------------------------------
   total:   30   1092    708
   ---------------------------------------------------------------------------

   total number of primitive shells          :   34
   total number of contracted shells         :  252
   total number of cartesian basis functions :  810
   total number of SCF-basis functions       :  708


 symmetry group of the molecule :   c1 

 the group has the following generators :
   c1(z)

    1 symmetry operations found

 there are 1 real representations :   a   


   =========================================================================


     restricted closed shell calculation for the wavefunction models:
               MP2        - Second Order Moeller Plesset PT


     global parameters for ricc2 program:

        hard restart (reuse of interm.) :  enabled 
        soft restart (reuse of vectors) :  disabled
        threshold for vector function   :    0.100000E-05
        convergence threshold energy    :    0.100000E-06
        linear dependence threshold     :    0.100000E-13
        global print level              :      1
        maximum number of iterations    :   300
        maximum number DIIS vectors     :    10
        max. dim. of reduced space      :   100
        core memory limit (MB)          : 15258


     MP2 energy only: Energy will be calculated directly from T2 amplitudes!

     Scratch Directory : 


   =========================================================================

    der. integral neglect threshold  :  0.10E-07
    integral neglect threshold       :  0.41E-11
    integral storage threshold THIZE :  0.10E-04
    integral storage threshold THIME :         5


                  +------------------------------------------+
                  |     Auxiliary basis set information      |
                  +------------------------------------------+

              we will work with the 1s 3p 5d 7f 9g ... basis set
              ...i.e. with spherical basis functions...

   type   atoms  prim   cont   basis
   ---------------------------------------------------------------------------
    c       18     81     81   cc-pVTZ   [8s6p5d3f1g|8s6p5d3f1g]
    h       12     30     30   cc-pVTZ   [4s3p2d1f|4s3p2d1f]
   ---------------------------------------------------------------------------
   total:   30   1818   1818
   ---------------------------------------------------------------------------

   total number of primitive shells          :   33
   total number of contracted shells         :  534
   total number of cartesian basis functions : 2238
   total number of SCF-basis functions       : 1818


 maximum number of shells which are related by symmetry :  1


 The symmetry information takes   1 MB

*---------------------------------------------------------------------*
|               simplified C1 algorithm will be applied               |
*---------------------------------------------------------------------*
  MOs are in ASCII format !


 reading orbital data $scfmo  from file mos
 orbital characterization : scfconv=7



              +--------------------------------------------+
              | list of orbitals that will be kept frozen: |
              +--------------------------------------------+
              |   irrep   index      energy     occ/vir    |
              +--------------------------------------------+
              |   a         1      -11.2514     occupied   |
              |   a         2      -11.2498     occupied   |
              |   a         3      -11.2476     occupied   |
              |   a         4      -11.2466     occupied   |
              |   a         5      -11.2464     occupied   |
              |   a         6      -11.2454     occupied   |
              |   a         7      -11.2392     occupied   |
              |   a         8      -11.2391     occupied   |
              |   a         9      -11.2390     occupied   |
              |   a        10      -11.2388     occupied   |
              |   a        11      -11.2385     occupied   |
              |   a        12      -11.2384     occupied   |
              |   a        13      -11.2379     occupied   |
              |   a        14      -11.2378     occupied   |
              |   a        15      -11.2375     occupied   |
              |   a        16      -11.2370     occupied   |
              |   a        17      -11.2370     occupied   |
              |   a        18      -11.2363     occupied   |
              +--------------------------------------------+



   Molecular Orbital Statistic:
   ============================

   -----------------------------
   orbitals in total:
   -----------------------------
    frozen occupied :     18
    active occupied :     42
    active virtual  :    648
    frozen virtual  :      0
    all together    :    708
   -----------------------------


     time in riccmos       cpu:  3.20 sec    wall:  0.75 sec    ratio:  4.3

     total memory allocated for calculation of (Q|P)**(-1/2) : 38 MiB


     calculation of (P|Q) ...
     time in lp2sym        cpu:  1.13 sec    wall:  0.14 sec    ratio:  8.0


     calculation of the Cholesky decomposition of (P|Q)**(-1) ...
     time in invmetri      cpu:  4.02 sec    wall:  0.51 sec    ratio:  7.9

   threshold for RMS(d[D]) in SCF was     :  0.10E-06
   integral neglect threshold             :  0.41E-11
   derivative integral neglect threshold  :  0.10E-07


   =========================================================================

     Energy of reference wave function is  -688.8634207890000
     Maximum orbital residual is           0.2296981733058E-05


     Number of symmetry-nonredundant auxiliary basis functions:     1818

     Block lengths for integral files:
        frozen occupied (BOI):        1 MiB
        active occupied (BJI):        1 MiB
        active virtual  (BAI):        9 MiB
        frozen virtual  (BGI):        0 MiB
               general  (BTI):       10 MiB

   =========================================================================



   restarted calculation begins with wavefunction model nb. 1 which is MP2     


   **************************************************************************
   *                                                                        *
   *          OPTIMIZATION OF THE GROUND STATE CLUSTER AMPLITUDES           *
   *                                                                        *
   **************************************************************************


   Iter.   MP2 energy       Norm(Omega)    Norm(t1)  Norm(t2)     cpu    wall
   ...........................................................................
    1   -691.6757825458     ------          0.00000   0.58974    2.02    0.25
   ...........................................................................


     time in total         cpu:  2 min  1 s  wall:  0 min 15 s  ratio:  8.0


     **********************************************************************
     *                                                                    *
     *   RHF  energy                             :   -688.8634207890      *
     *   MP2 correlation energy (doubles)        :     -2.8123617568      *
     *                                                                    *
     *   Final MP2 energy                        :   -691.6757825458      *
     *                                                                    *
     *    E(S)   =     -1.7043324849      E(T)   =     -1.1080292718      *
     *    E(OS)  =     -2.0736755755      E(SS)  =     -0.7386861812      *
     *                                                                    *
     *   SCS-MP2 energy                          :   -691.5980602067      *
     *   (computed with  C(OS) =   1.2000  and  C(SS) =   0.3333)         *
     *                                                                    *
     *   SOS-MP2 energy                          :   -691.5591990372      *
     *   (computed with  C(OS) =   1.3000)                                *
     *                                                                    *
     *   Norm of MP1 T2 amplitudes               :      0.5897373167      *
     *                                                                    *
     **********************************************************************



    ------------------------------------------------------------------------
         total  cpu-time :  3 minutes and 12 seconds
         total wall-time :  24.62 seconds
    ------------------------------------------------------------------------

   ****  ricc2 : all done  ****


    2018-04-03 16:59:52.865 

