 operating system is UNIX !

 ridft (gplogin2.gp.local) : TURBOMOLE V7.2 ( 21454 ) 4 Oct 2017 at 12:48:15
 Copyright (C) 2017 TURBOMOLE GmbH, Karlsruhe


    2018-05-19 19:16:57.712 



                                  r i d f t

                        DFT program with RI approximation 
                                for coulomb part 




                                                 
                                 References:     
                                                 
          TURBOMOLE:                             
              R. Ahlrichs, M. Baer, M. Haeser, H. Horn, and
              C. Koelmel
              Electronic structure calculations on workstation
              computers: the program system TURBOMOLE
              Chem. Phys. Lett. 162: 165 (1989)
          Density Functional:                              
              O. Treutler and R. Ahlrichs                      
              Efficient Molecular Numerical Integration Schemes
              J. Chem. Phys. 102: 346 (1995)                   
          Parallel Version:                                
              Performance of parallel TURBOMOLE for Density    
              Functional Calculations                          
              M. v. Arnim and R. Ahlrichs                      
              J. Comp. Chem. 19: 1746 (1998)                   
          RI-J Method:                                     
              Auxiliary Basis Sets to approximate Coulomb      
              Potentials                                       
              Chem. Phys. Lett. 240: 283 (1995)                
              K. Eichkorn, O. Treutler, H. Oehm, M. Haeser     
              and R. Ahlrichs                                  
              Chem. Phys. Lett. 242: 652 (1995)                
                                                           
              Auxiliary Basis Sets for Main Row Atoms and their
              Use to approximate Coulomb Potentials            
              K. Eichkorn, F. Weigend, O. Treutler and         
              R. Ahlrichs                                      
              Theo. Chem. Acc. 97: 119 (1997)                   
                                                           
              Accurate Coulomb-fitting basis sets for H to Rn 
              F. Weigend                                        
              Phys. Chem. Chem. Phys. 8: 1057 (2006)            
                                                           
          Multipole accelerated RI-J (MARI-J):             
              Fast evaluation of the Coulomb potential for     
              electron densities using multipole accelerated   
              resolution of identity approximation             
              M. Sierka, A. Hogekamp and R. Ahlrichs           
              J. Chem. Phys. 118: 9136 (2003)                  
          RI-JK Method:                                     
              A fully direct RI-HF algorithm: Implementation,
              optimised auxiliary basis sets, demonstration of
              accuracy and efficiency                         
              F. Weigend                                      
              Phys. Chem. Chem. Phys. 4: 4285 (2002)           
          Two-component HF and DFT with spin-orbit coupling:  
              Self-consistent treatment of spin-orbit         
              interactions with efficient Hartree-Fock and    
              density functional methods                      
              M. K. Armbruster, F. Weigend, C. van Wüllen and 
              W. Klopper                                      
              Phys. Chem. Chem. Phys. 10: 1748 (2008)         
          Relativistic all-electron 2c calculations           
              An efficient implementation of two-component    
              relativistic exact-decoupling methods for large 
              molecules                                       
              D. Peng, N. Middendorf, F. Weigend, M. Reiher   
              J. Chem. Phys. 138, 184105 (2013)               
                                         




              +--------------------------------------------------+
              |      general information about current run       |
              +--------------------------------------------------+

 
 PBE functional
 exchange:    LDA + PBE
 correlation: LDA (PW) + PBE
 A DFT calculation using the RI-J approximation will be carried out.
 Allocatable memory for RI due to $ricore (MB):                   500


              +--------------------------------------------------+
              | Atomic coordinate, charge and isotop information |
              +--------------------------------------------------+

                    atomic coordinates            atom    charge  isotop
         -0.01390834    0.18961018    7.82877991    c      6.000     0
         -0.00749389    0.12586017    5.81944000    h      1.000     0
         -0.02134710    0.26196784   10.11811770    c      6.000     0
         -0.02751939    0.32503912   12.12294973    h      1.000     0
 
       center of nuclear mass  :   -0.01761835    0.22576274    8.97327430
       center of nuclear charge:   -0.01761043    0.22574053    8.97312681

              +--------------------------------------------------+
              |               basis set information              |
              +--------------------------------------------------+

              we will work with the 1s 3p 5d 7f 9g ... basis set
              ...i.e. with spherical basis functions...

   type   atoms  prim   cont   basis
   ---------------------------------------------------------------------------
    c        2     77     57   def2-QZVP   [7s4p3d2f1g|15s8p3d2f1g]
    h        2     33     30   def2-QZVP   [4s3p2d1f|7s3p2d1f]
   ---------------------------------------------------------------------------
   total:    4    220    174
   ---------------------------------------------------------------------------

   total number of primitive shells          :   42
   total number of contracted shells         :   54
   total number of cartesian basis functions :  214
   total number of SCF-basis functions       :  174


 integral neglect threshold       :  0.16E-12
 integral storage threshold THIZE :  0.10E-04
 integral storage threshold THIME :         5

 RI-J AUXILIARY BASIS SET information:

              we will work with the 1s 3p 5d 7f 9g ... basis set
              ...i.e. with spherical basis functions...

   type   atoms  prim   cont   basis
   ---------------------------------------------------------------------------
    c        2     70     49   def2-QZVP   [6s4p3d1f1g|12s5p4d2f1g]
    h        2     16     11   def2-QZVP   [3s1p1d|5s2p1d]
   ---------------------------------------------------------------------------
   total:    4    172    120
   ---------------------------------------------------------------------------

   total number of primitive shells          :   32
   total number of contracted shells         :   40
   total number of cartesian basis functions :  146
   total number of SCF-basis functions       :  120


 symmetry group of the molecule :   c1 

 the group has the following generators :
   c1(z)

    1 symmetry operations found

 there are 1 real representations :   a   

 maximum number of shells which are related by symmetry :  1


    mo occupation :
   irrep   mo's   occupied
    a      174        7
 
 number of basis functions   :                    174
 number of occupied orbitals :                      7
 
  
           ------------------
           density functional
           ------------------
 PBE functional
 exchange:    LDA + PBE
 correlation: LDA (PW) + PBE

 iterations will be done with small grid
  
 spherical integration : Lebedev's spherical grid
 spherical gridsize    :                     5
    i.e. gridpoints    :                   590
 value for diffuse not defined
 radial integration    : Chebyshev 2nd kind (scaling 3)
 radial gridsize       :                     8
 integration cells     :                     4
 partition function    : becke
 partition sharpness   :                     3
  

 biggest AO integral is expected to be     5.262544080
  
           ------------------------
               RI-J - INFORMATION
           ------------------------
 Contributions to RI integral batches: 
  neglected integral batches:                    37
  direct contribution:                            0
  memory contribution:                  1448
 Memory core needed for (P|Q) and Cholesky      1 MByte
 Memory core minimum needed except of (P|Q)     1 MByte
 Total minimum memory core needed (sum)         1 MByte
  
 ****************************************
 Memory allocated for RI-J    26 MByte
 ****************************************
                                            

          ------------------------
          nuclear repulsion energy  :   24.6431290746    
          ------------------------


         -----------------
         -S,T+V- integrals
         -----------------

 1e-integrals will be neglected if expon. factor < 0.156166E-13
 
   Difference densities algorithm switched on.
   The maximal number of linear combinations of
   difference densities is                    20 .

 DIIS switched on: error vector is FDS-SDF
 Max. Iterations for DIIS is     :   4
 DIIS matrix (see manual) 
    Scaling factor of diagonals  :  1.200
    threshold for scaling factor :  0.000

 scf convergence criterion : increment of total energy < .1000000D-08
                  and increment of one-electron energy < .1000000D-05

  MOs are in ASCII format !


 automatic virtual orbital shift switched on 
      shift if e(lumo)-e(homo) < 0.10000000    


 reading orbital data $scfmo  from file mos
 orbital characterization : expanded
 mo provided and orthogonalized by Cholesky decomposition

 DSCF restart information will be dumped onto file mos


 Starting SCF iterations

          Overall gridpoints after grid construction =         19965

 ITERATION  ENERGY          1e-ENERGY        2e-ENERGY     NORM[dD(SAO)]  TOL
   1  -76.932485919050    -148.46080299     46.885187997    0.000D+00 0.156D-12
                            Exc = -10.9708709609     Coul =  57.8560589578    
                              N = 13.999999760    
                            current damping = 0.700
 
          max. resid. norm for Fia-block=  4.761D-01 for orbital      3a         
          max. resid. fock norm         =  5.436D+01 for orbital    155a         

 ITERATION  ENERGY          1e-ENERGY        2e-ENERGY     NORM[dD(SAO)]  TOL
   2  -77.190864676369    -150.68753034     48.853536590    0.622D+00 0.101D-12
                            Exc = -11.2341202903     Coul =  60.0876568802    
                              N = 13.999999799    
                            current damping = 0.650
 
          Norm of current diis error:  1.6577    
          max. resid. norm for Fia-block=  1.403D-01 for orbital      2a         
          max. resid. fock norm         =  1.492D-01 for orbital     10a         

 ITERATION  ENERGY          1e-ENERGY        2e-ENERGY     NORM[dD(SAO)]  TOL
   3  -77.240572322846    -151.22258556     49.338884158    0.295D+00 0.876D-13
                            Exc = -11.3088911414     Coul =  60.6477752994    
                              N = 13.999999812    
                            current damping = 0.500
 
          Norm of current diis error: 0.75561    
          max. resid. norm for Fia-block=  5.629D-02 for orbital      2a         
          max. resid. fock norm         =  5.902D-02 for orbital      2a         

 ITERATION  ENERGY          1e-ENERGY        2e-ENERGY     NORM[dD(SAO)]  TOL
   4  -77.255068570291    -151.56799558     49.669797935    0.558D-01 0.717D-13
                            Exc = -11.3572942328     Coul =  61.0270921674    
                              N = 14.000000038    
                            current damping = 0.350
 
          Norm of current diis error: 0.26444    
          max. resid. norm for Fia-block=  1.926D-02 for orbital      2a         
          max. resid. fock norm         =  2.125D-02 for orbital      3a         

 ITERATION  ENERGY          1e-ENERGY        2e-ENERGY     NORM[dD(SAO)]  TOL
   5  -77.257373893257    -151.66574406     49.765241093    0.146D-01 0.631D-13
                            Exc = -11.3726105970     Coul =  61.1378516896    
                              N = 14.000000185    
                            current damping = 0.200
 
          Norm of current diis error: 0.73575E-01
          max. resid. norm for Fia-block=  5.309D-03 for orbital      3a         
          max. resid. fock norm         =  6.008D-03 for orbital      3a         
          mo-orthogonalization: Cholesky decomposition

 ITERATION  ENERGY          1e-ENERGY        2e-ENERGY     NORM[dD(SAO)]  TOL
   6  -77.257579810576    -151.71374303     49.813034148    0.362D-02 0.589D-13
                            Exc = -11.3792651438     Coul =  61.1922992916    
                              N = 14.000000241    
                            current damping = 0.050
 
          Norm of current diis error: 0.14624E-01
          max. resid. norm for Fia-block=  1.006D-03 for orbital      3a         
          max. resid. fock norm         =  1.688D-03 for orbital      2a         

 ITERATION  ENERGY          1e-ENERGY        2e-ENERGY     NORM[dD(SAO)]  TOL
   7  -77.257570287429    -151.70421703     49.803517665    0.302D-02 0.577D-13
                            Exc = -11.3784960894     Coul =  61.1820137544    
                              N = 14.000000247    
                            current damping = 0.100
 
          Norm of current diis error: 0.26792E-01
          max. resid. norm for Fia-block=  5.306D-04 for orbital      7a         
          max. resid. fock norm         =  1.102D-03 for orbital    173a         

 ITERATION  ENERGY          1e-ENERGY        2e-ENERGY     NORM[dD(SAO)]  TOL
   8  -77.257586926599    -151.70702441     49.806308412    0.854D-03 0.573D-13
                            Exc = -11.3788149326     Coul =  61.1851233444    
                              N = 14.000000248    
                            current damping = 0.150
 
          Norm of current diis error: 0.41715E-02
          max. resid. norm for Fia-block=  2.295D-04 for orbital      5a         
          max. resid. fock norm         =  3.168D-04 for orbital    159a         

 ITERATION  ENERGY          1e-ENERGY        2e-ENERGY     NORM[dD(SAO)]  TOL
   9  -77.257587314331    -151.71341784     49.812701449    0.132D-03 0.568D-13
                            Exc = -11.3795161898     Coul =  61.1922176387    
                              N = 14.000000250    
                            current damping = 0.050
 
          Norm of current diis error: 0.17394E-02
          max. resid. norm for Fia-block=  5.950D-05 for orbital      6a         
          max. resid. fock norm         =  8.256D-05 for orbital    159a         

 ITERATION  ENERGY          1e-ENERGY        2e-ENERGY     NORM[dD(SAO)]  TOL
  10  -77.257587381291    -151.71165360     49.810937143    0.212D-04 0.563D-13
                            Exc = -11.3793168519     Coul =  61.1902539950    
                              N = 14.000000250    
                            current damping = 0.100
 
          Norm of current diis error: 0.66202E-03
          max. resid. norm for Fia-block=  1.651D-05 for orbital      7a         
          max. resid. fock norm         =  3.352D-05 for orbital    173a         
          mo-orthogonalization: Cholesky decomposition

 ITERATION  ENERGY          1e-ENERGY        2e-ENERGY     NORM[dD(SAO)]  TOL
  11  -77.257587391436    -151.71181373     49.811097264    0.175D-05 0.558D-13
                            Exc = -11.3793353854     Coul =  61.1904326499    
                              N = 14.000000250    
                            current damping = 0.150
 
          Norm of current diis error: 0.10991E-03
          max. resid. norm for Fia-block=  2.938D-06 for orbital      7a         
          max. resid. fock norm         =  6.102D-06 for orbital    173a         

 ITERATION  ENERGY          1e-ENERGY        2e-ENERGY     NORM[dD(SAO)]  TOL
  12  -77.257587391708    -151.71182400     49.811107535    0.241D-06 0.550D-13
                            Exc = -11.3793367029     Coul =  61.1904442383    
                              N = 14.000000250    
                            current damping = 0.050
 
          Norm of current diis error: 0.23997E-04
          max. resid. norm for Fia-block=  6.526D-07 for orbital      6a         
          max. resid. fock norm         =  1.215D-06 for orbital    173a         

 ITERATION  ENERGY          1e-ENERGY        2e-ENERGY     NORM[dD(SAO)]  TOL
  13  -77.257587391721    -151.71181334     49.811096875    0.616D-07 0.543D-13
                            Exc = -11.3793353881     Coul =  61.1904322630    
                              N = 14.000000250    
                            current damping = 0.100
 
          Norm of current diis error: 0.66518E-05
          max. resid. norm for Fia-block=  2.163D-07 for orbital      7a         
          max. resid. fock norm         =  2.911D-07 for orbital    159a         

 ITERATION  ENERGY          1e-ENERGY        2e-ENERGY     NORM[dD(SAO)]  TOL
  14  -77.257587391722    -151.71181973     49.811103264    0.109D-07 0.542D-13
                            Exc = -11.3793361361     Coul =  61.1904394004    
                              N = 14.000000250    
                            current damping = 0.150
 
          Norm of current diis error: 0.17646E-05
          max. resid. norm for Fia-block=  9.166D-08 for orbital      5a         
          max. resid. fock norm         =  1.220D-07 for orbital    159a         

 ENERGY CONVERGED !

          Overall gridpoints after grid construction =         64959

 ITERATION  ENERGY          1e-ENERGY        2e-ENERGY     NORM[dD(SAO)]  TOL
  15  -77.257582695076    -151.71181702     49.811105253    0.133D-08 0.538D-13
                            Exc = -11.3793311341     Coul =  61.1904363869    
                              N = 13.999999802    
                            current damping = 0.200
 
          Norm of current diis error: 0.68521E-06
          max. resid. norm for Fia-block=  1.745D-08 for orbital      7a         
          max. resid. fock norm         =  2.481D-08 for orbital    159a         

 End of SCF iterations

   convergence criteria satisfied after    15 iterations


                  ------------------------------------------ 
                 |  total energy      =    -77.25758269508  |
                  ------------------------------------------ 
                 :  kinetic energy    =     76.89758571953  :
                 :  potential energy  =   -154.15516841461  :
                 :  virial theorem    =      1.99534030236  :
                 :  wavefunction norm =      1.00000000000  :
                  .......................................... 


 <geterg> : there is no data group $energy 


 <skperg> : $end is missing 


 orbitals $scfmo  will be written to file mos

    irrep                  3a          4a          5a          6a          7a   
 eigenvalues H         -0.68205    -0.51772    -0.44835    -0.26308    -0.26308
            eV         -18.5598    -14.0881    -12.2003     -7.1590     -7.1590
 occupation              2.0000      2.0000      2.0000      2.0000      2.0000 

    irrep                  8a          9a         10a         11a         12a   
 eigenvalues H         -0.01510    -0.01510     0.02922     0.03897     0.09406
            eV          -0.4109     -0.4109      0.7951      1.0603      2.5597
 
 
 
 
 ==============================================================================
                           electrostatic moments
 ==============================================================================

 reference point for electrostatic moments:    0.00000   0.00000   0.00000

 
              nuc           elec       ->  total
 ------------------------------------------------------------------------------
                          charge      
 ------------------------------------------------------------------------------
          14.000000     -14.000000      -0.000000
 
 ------------------------------------------------------------------------------
                       dipole moment  
 ------------------------------------------------------------------------------
   x      -0.246546       0.246598       0.000052
   y       3.160367      -3.160512      -0.000144
   z     125.623775    -125.624690      -0.000914
 
   | dipole moment | =     0.0009 a.u. =     0.0024 debye 
 
 ------------------------------------------------------------------------------
                     quadrupole moment
 ------------------------------------------------------------------------------
  xx       0.004708     -10.213660     -10.208951
  yy       0.748966     -10.953152     -10.204186
  zz    1162.828396   -1168.166705      -5.338310
  xy      -0.059265       0.058789      -0.000475
  xz      -2.326494       2.311479      -0.015015
  yz      29.483096     -29.330177       0.152919
 
     1/3  trace=      -8.583816
     anisotropy=       4.875530
 
 ==============================================================================
 


    ------------------------------------------------------------------------
         total  cpu-time :   5.10 seconds
         total wall-time :   5.26 seconds
    ------------------------------------------------------------------------

   ****  ridft : all done  ****


    2018-05-19 19:17:02.954 

