
 eiger (gplogin3.local) : TURBOMOLE V7.2 ( 21285 ) 30 Jun 2017 at 11:51:10
 Copyright (C) 2017 TURBOMOLE GmbH, Karlsruhe


    2017-11-05 19:13:02.398 

                                                                                
  
 HOMO-LUMO Separation
   HOMO:    80.    80 a     -0.25800002 H =     -7.02054 eV
   LUMO:    81.    81 a     -0.17266087 H =     -4.69834 eV
   Gap :                    +0.08533915 H =     +2.32220 eV
 
Number of MOs=    760, Electrons=    160.00, Symmetry: c1   
 
   Nr.   Orbital    Occupation       Energy
   97.    97 a                     +0.092380 H =        +2.514 eV
   96.    96 a                     +0.084614 H =        +2.302 eV
   95.    95 a                     +0.075029 H =        +2.042 eV
   94.    94 a                     +0.073200 H =        +1.992 eV
   93.    93 a                     +0.070118 H =        +1.908 eV
   92.    92 a                     +0.058818 H =        +1.601 eV
   91.    91 a                     +0.049834 H =        +1.356 eV
   90.    90 a                     +0.022299 H =        +0.607 eV
   89.    89 a                     +0.017497 H =        +0.476 eV
   88.    88 a                     -0.015530 H =        -0.423 eV
   87.    87 a                     -0.040335 H =        -1.098 eV
   86.    86 a                     -0.082572 H =        -2.247 eV
   85.    85 a                     -0.087754 H =        -2.388 eV
   84.    84 a                     -0.135409 H =        -3.685 eV
   83.    83 a                     -0.141734 H =        -3.857 eV
   82.    82 a                     -0.157609 H =        -4.289 eV
   81.    81 a                     -0.172661 H =        -4.698 eV
   80.    80 a        2.000        -0.258000 H =        -7.021 eV
   79.    79 a        2.000        -0.270305 H =        -7.355 eV
   78.    78 a        2.000        -0.271691 H =        -7.393 eV
   77.    77 a        2.000        -0.277307 H =        -7.546 eV
   76.    76 a        2.000        -0.281474 H =        -7.659 eV
   75.    75 a        2.000        -0.286840 H =        -7.805 eV
   74.    74 a        2.000        -0.288446 H =        -7.849 eV
   73.    73 a        2.000        -0.292260 H =        -7.953 eV
   72.    72 a        2.000        -0.301045 H =        -8.192 eV
   71.    71 a        2.000        -0.303652 H =        -8.263 eV
   70.    70 a        2.000        -0.304736 H =        -8.292 eV
   69.    69 a        2.000        -0.313215 H =        -8.523 eV
   68.    68 a        2.000        -0.315999 H =        -8.599 eV
   67.    67 a        2.000        -0.330212 H =        -8.986 eV
   66.    66 a        2.000        -0.368900 H =       -10.038 eV
   65.    65 a        2.000        -0.382875 H =       -10.419 eV


    ------------------------------------------------------------------------
         total  cpu-time :   0.30 seconds
         total wall-time :   0.41 seconds
    ------------------------------------------------------------------------

   ****  eiger : all done  ****


    2017-11-05 19:13:02.779 

