
   OpenMP run-time library returned nthreads = 28
 operating system is UNIX !

 dscf (c-14-38) : TURBOMOLE V7.3 ( 22142 ) 4 Jul 2018 at 18:12:42
 Copyright (C) 2018 TURBOMOLE GmbH, Karlsruhe


    2019-04-01 23:55:03.486 



                             d s c f - program

                   idea & directorship : reinhart ahlrichs
                   program development : marco haeser
                                         michael baer
                           dft version : oliver treutler


                          quantum chemistry group
                          universitaet  karlsruhe
                                  germany




                          References             
                                                 
          TURBOMOLE:                             
              R. Ahlrichs, M. Baer, M. Haeser, H. Horn, and
              C. Koelmel
              Electronic structure calculations on workstation
              computers: the program system TURBOMOLE
              Chem. Phys. Lett. 162: 165 (1989)
          Density Functional:                              
              O. Treutler and R. Ahlrichs                      
              Efficient Molecular Numerical Integration Schemes
              J. Chem. Phys. 102: 346 (1995)                   
          Parallel Version:                                
              Performance of parallel TURBOMOLE for Density    
              Functional Calculations                          
              M. v. Arnim and R. Ahlrichs                      
              J. Comp. Chem. 19: 1746 (1998)                   
                                         




              +--------------------------------------------------+
              | Atomic coordinate, charge and isotop information |
              +--------------------------------------------------+

                    atomic coordinates            atom    charge  isotop
          3.07971469    0.95055591    0.51043750    c      6.000     0
          3.10212411    2.75756002   -0.46880866    h      1.000     0
          4.37531918   -0.34686812   -0.41117861    h      1.000     0
          3.72227981    1.22711302    2.44526980    h      1.000     0
          0.49478276   -0.25107132    0.59443642    c      6.000     0
          0.18756034   -2.47481562    1.15620995    o      8.000     0
         -1.46170742    1.32755556    0.04171741    n      7.000     0
         -1.07527567    3.14933587   -0.31334369    h      1.000     0
         -4.06293413    0.50260791    0.17962467    c      6.000     0
         -4.05296672   -1.54845568    0.19069624    h      1.000     0
         -4.98990345    1.16373181    1.89653750    h      1.000     0
         -5.11689448    1.17304958   -1.45180207    h      1.000     0
 
       center of nuclear mass  :   -0.37494879    0.01468580    0.49816728
       center of nuclear charge:   -0.39243516    0.10705964    0.47840159

              +--------------------------------------------------+
              |               basis set information              |
              +--------------------------------------------------+

              we will work with the 1s 3p 5d 7f 9g ... basis set
              ...i.e. with spherical basis functions...

   type   atoms  prim   cont   basis
   ---------------------------------------------------------------------------
    c        3     50     30   cc-pVTZ   [4s3p2d1f|18s5p2d1f]
    h        7     16     14   cc-pVTZ   [3s2p1d|5s2p1d]
    o        1     50     30   cc-pVTZ   [4s3p2d1f|18s5p2d1f]
    n        1     50     30   cc-pVTZ   [4s3p2d1f|18s5p2d1f]
   ---------------------------------------------------------------------------
   total:   12    362    248
   ---------------------------------------------------------------------------

   total number of primitive shells          :   86
   total number of contracted shells         :   92
   total number of cartesian basis functions :  280
   total number of SCF-basis functions       :  248


 integral neglect threshold       :  0.12E-12
 integral storage threshold THIZE :  0.10E-04
 integral storage threshold THIME :         5


 DENSITY CONVERGENCE CHECK SWITCHED ON !
 SCF CONVERGENCE IF RMS(delta[D]) <     0.1000000000E-06


 symmetry group of the molecule :   c1 

 the group has the following generators :
   c1(z)

    1 symmetry operations found

 there are 1 real representations :   a   

 maximum number of shells which are related by symmetry :  1


    mo occupation :
   irrep   mo's   occupied
    a      248       20
 
 number of basis functions   :                    248
 number of occupied orbitals :                     20
 

 automatic virtual orbital shift switched on 
      shift if e(lumo)-e(homo) < 0.10000000    


          ------------------------
          nuclear repulsion energy  :   180.561851022    
          ------------------------


         -----------------
         -S,T+V- integrals
         -----------------

 1e-integrals will be neglected if expon. factor < 0.119356E-13
 
   Difference densities algorithm switched on.
   The maximal number of linear combinations of
   difference densities is                    20 .

 DIIS switched on: error vector is FDS-SDF
 Max. Iterations for DIIS is     :   5
 DIIS matrix (see manual) 
    Scaling factor of diagonals  :  1.200
    threshold for scaling factor :  0.000

 scf convergence criterion : increment of total energy < .1000000D-08
                  and increment of one-electron energy < .1000000D-05

  MOs are in ASCII format !


 reading orbital data $scfmo  from file mos
 orbital characterization : scfconv=9

 DSCF restart information will be dumped onto file mos

 
                                              current damping :  0.700
 ITERATION  ENERGY          1e-ENERGY        2e-ENERGY     RMS[dD(SAO)]   TOL
   1  -247.04329507753    -694.27830086     266.67315476    0.000D+00 0.119D-12
          max. resid. norm for Fia-block=  1.034D-01 for orbital      1a         
          max. resid. fock norm         =  1.665D-01 for orbital    247a         
          Delta Eig. =    28.7439485837 eV 
 
                                              current damping :  0.650
 ITERATION  ENERGY          1e-ENERGY        2e-ENERGY     RMS[dD(SAO)]   TOL
   2  -247.08758193965    -693.67891760     266.02948464    0.123D-02 0.757D-13
          Norm of current diis error: 0.42486    
          max. resid. norm for Fia-block=  4.669D-02 for orbital      1a         
          max. resid. fock norm         =  7.237D-02 for orbital    245a         
          Delta Eig. =    11.8657932844 eV 
 
                                              current damping :  0.600
 ITERATION  ENERGY          1e-ENERGY        2e-ENERGY     RMS[dD(SAO)]   TOL
   3  -247.09661745908    -693.75986338     266.10139490    0.587D-03 0.582D-13
          Norm of current diis error: 0.19235    
          max. resid. norm for Fia-block=  2.273D-02 for orbital      1a         
          max. resid. fock norm         =  2.487D-02 for orbital      1a         
          Delta Eig. =     5.5353684668 eV 
 
                                              current damping :  0.650
 ITERATION  ENERGY          1e-ENERGY        2e-ENERGY     RMS[dD(SAO)]   TOL
   4  -247.09876474274    -693.75856195     266.09794619    0.318D-03 0.511D-13
          Norm of current diis error: 0.81306E-01
          max. resid. norm for Fia-block=  7.361D-03 for orbital      1a         
          max. resid. fock norm         =  1.150D-02 for orbital    245a         
          Delta Eig. =     1.6515618968 eV 
 
                                              current damping :  0.500
 ITERATION  ENERGY          1e-ENERGY        2e-ENERGY     RMS[dD(SAO)]   TOL
   5  -247.09915848096    -693.74143487     266.08042537    0.121D-03 0.475D-13
          Norm of current diis error: 0.35575E-01
          max. resid. norm for Fia-block=  3.388D-03 for orbital     13a         
          max. resid. fock norm         =  3.801D-03 for orbital    245a         
 mo-orthogonalization: Cholesky decomposition
          Delta Eig. =     0.8075672562 eV 
 
                                              current damping :  0.350
 ITERATION  ENERGY          1e-ENERGY        2e-ENERGY     RMS[dD(SAO)]   TOL
   6  -247.09924662939    -693.73907145     266.07797379    0.645D-04 0.446D-13
          Norm of current diis error: 0.14248E-01
          max. resid. norm for Fia-block=  1.497D-03 for orbital     13a         
          max. resid. fock norm         =  1.593D-03 for orbital     24a         
          Delta Eig. =     0.2823705495 eV 
 
                                              current damping :  0.200
 ITERATION  ENERGY          1e-ENERGY        2e-ENERGY     RMS[dD(SAO)]   TOL
   7  -247.09926372548    -693.73796771     266.07685296    0.293D-04 0.417D-13
          Norm of current diis error: 0.51519E-02
          max. resid. norm for Fia-block=  5.956D-04 for orbital     13a         
          max. resid. fock norm         =  6.171D-04 for orbital     24a         
          Delta Eig. =     0.0859425859 eV 
 
                                              current damping :  0.050
 ITERATION  ENERGY          1e-ENERGY        2e-ENERGY     RMS[dD(SAO)]   TOL
   8  -247.09926654864    -693.73766650     266.07654893    0.125D-04 0.391D-13
          Norm of current diis error: 0.16915E-02
          max. resid. norm for Fia-block=  2.117D-04 for orbital     13a         
          max. resid. fock norm         =  2.227D-04 for orbital     24a         
          Delta Eig. =     0.0136382158 eV 
 
                                              current damping :  0.050
 ITERATION  ENERGY          1e-ENERGY        2e-ENERGY     RMS[dD(SAO)]   TOL
   9  -247.09926693834    -693.73758974     266.07647178    0.478D-05 0.368D-13
          Norm of current diis error: 0.52255E-03
          max. resid. norm for Fia-block=  6.628D-05 for orbital     19a         
          max. resid. fock norm         =  7.444D-05 for orbital     19a         
          Delta Eig. =     0.0038332028 eV 
 
                                              current damping :  0.100
 ITERATION  ENERGY          1e-ENERGY        2e-ENERGY     RMS[dD(SAO)]   TOL
  10  -247.09926697336    -693.73760996     266.07649196    0.142D-05 0.353D-13
          Norm of current diis error: 0.19557E-03
          max. resid. norm for Fia-block=  3.131D-05 for orbital     20a         
          max. resid. fock norm         =  3.724D-05 for orbital     20a         
 mo-orthogonalization: Cholesky decomposition
          Delta Eig. =     0.0020596728 eV 
 
                                              current damping :  0.150
 ITERATION  ENERGY          1e-ENERGY        2e-ENERGY     RMS[dD(SAO)]   TOL
  11  -247.09926697720    -693.73759700     266.07647900    0.415D-06 0.344D-13
          Norm of current diis error: 0.10420E-03
          max. resid. norm for Fia-block=  1.094D-05 for orbital     19a         
          max. resid. fock norm         =  1.582D-05 for orbital    245a         
          Delta Eig. =     0.0007830458 eV 
 
                                              current damping :  0.200
 ITERATION  ENERGY          1e-ENERGY        2e-ENERGY     RMS[dD(SAO)]   TOL
  12  -247.09926697807    -693.73760074     266.07648274    0.183D-06 0.337D-13
          Norm of current diis error: 0.29340E-04
          max. resid. norm for Fia-block=  5.273D-06 for orbital     20a         
          max. resid. fock norm         =  5.383D-06 for orbital     20a         
          Delta Eig. =     0.0000702799 eV 

 DENSITY CONVERGED !

 
                                              current damping :  0.250
 ITERATION  ENERGY          1e-ENERGY        2e-ENERGY     RMS[dD(SAO)]   TOL
  13  -247.09926697821    -693.73759850     266.07648050    0.813D-07 0.339D-13
          Norm of current diis error: 0.13313E-04
          max. resid. norm for Fia-block=  2.427D-06 for orbital     20a         
          max. resid. fock norm         =  2.496D-06 for orbital     20a         
          Delta Eig. =     0.0000379904 eV 

 ENERGY & DENSITY CONVERGED !

 
                                              current damping :  0.300
 ITERATION  ENERGY          1e-ENERGY        2e-ENERGY     RMS[dD(SAO)]   TOL
  14  -247.09926697824    -693.73759922     266.07648122    0.395D-07 0.339D-13
          max. resid. norm for Fia-block=  8.191D-07 for orbital     19a         
          max. resid. fock norm         =  8.734D-07 for orbital     19a         

 convergence criteria satisfied after    14 iterations


                  ------------------------------------------ 
                 |  total energy      =   -247.09926697824  |
                  ------------------------------------------ 
                 :  kinetic energy    =    246.77698251182  :
                 :  potential energy  =   -493.87624949006  :
                 :  virial theorem    =      1.99869572876  :
                 :  wavefunction norm =      1.00000000000  :
                  .......................................... 


 orbitals $scfmo  will be written to file mos

    irrep                 16a         17a         18a         19a         20a   
 eigenvalues H         -0.55383    -0.54277    -0.50187    -0.41788    -0.38903
            eV         -15.0707    -14.7696    -13.6566    -11.3711    -10.5861
 occupation              2.0000      2.0000      2.0000      2.0000      2.0000 

    irrep                 21a         22a         23a         24a         25a   
 eigenvalues H          0.12605     0.15768     0.17851     0.18328     0.21525
            eV           3.4299      4.2907      4.8575      4.9874      5.8574
 
 
 
 
 ==============================================================================
                           electrostatic moments
 ==============================================================================

 reference point for electrostatic moments:    0.00000   0.00000   0.00000

 
              nuc           elec       ->  total
 ------------------------------------------------------------------------------
                          charge      
 ------------------------------------------------------------------------------
          40.000000     -40.000000      -0.000000
 
 ------------------------------------------------------------------------------
                       dipole moment  
 ------------------------------------------------------------------------------
   x     -15.697407      15.606698      -0.090709
   y       4.282385      -2.721121       1.561264
   z      19.136063     -19.495406      -0.359342
 
   | dipole moment | =     1.6046 a.u. =     4.0786 debye 
 
 ------------------------------------------------------------------------------
                     quadrupole moment
 ------------------------------------------------------------------------------
  xx     283.945330    -303.752924     -19.807594
  yy      92.926383    -117.589214     -24.662831
  zz      26.791078     -50.403750     -23.612673
  xy     -10.045541      10.152073       0.106532
  xz      11.503778     -11.339199       0.164580
  yz     -18.873776      20.221399       1.347623
 
     1/3  trace=     -22.694366
     anisotropy=       5.014076
 
 ==============================================================================
 


    ------------------------------------------------------------------------
         total  cpu-time :  9 minutes and 19 seconds
         total wall-time :  44.79 seconds
    ------------------------------------------------------------------------

   ****  dscf : all done  ****


    2019-04-01 23:55:48.213 

