
   OpenMP run-time library returned nthreads = 28
 operating system is UNIX !

 dscf (c-15-41) : TURBOMOLE V7.3 ( 22142 ) 4 Jul 2018 at 18:12:42
 Copyright (C) 2018 TURBOMOLE GmbH, Karlsruhe


    2019-04-01 22:51:02.009 



                             d s c f - program

                   idea & directorship : reinhart ahlrichs
                   program development : marco haeser
                                         michael baer
                           dft version : oliver treutler


                          quantum chemistry group
                          universitaet  karlsruhe
                                  germany




                          References             
                                                 
          TURBOMOLE:                             
              R. Ahlrichs, M. Baer, M. Haeser, H. Horn, and
              C. Koelmel
              Electronic structure calculations on workstation
              computers: the program system TURBOMOLE
              Chem. Phys. Lett. 162: 165 (1989)
          Density Functional:                              
              O. Treutler and R. Ahlrichs                      
              Efficient Molecular Numerical Integration Schemes
              J. Chem. Phys. 102: 346 (1995)                   
          Parallel Version:                                
              Performance of parallel TURBOMOLE for Density    
              Functional Calculations                          
              M. v. Arnim and R. Ahlrichs                      
              J. Comp. Chem. 19: 1746 (1998)                   
                                         




              +--------------------------------------------------+
              | Atomic coordinate, charge and isotop information |
              +--------------------------------------------------+

                    atomic coordinates            atom    charge  isotop
          0.58950673    1.06018046    0.93862482    c      0.000     0
          1.40243394    2.93544219    0.91002730    h      0.000     0
          2.15841183   -1.05460817    1.01301008    c      0.000     0
          4.18859936   -0.82061384    1.04379050    h      0.000     0
          1.11078885   -3.47083551    1.04718106    c      0.000     0
          2.32797704   -5.11140972    1.10590890    h      0.000     0
         -1.50546492   -3.77260317    1.00715411    c      0.000     0
         -2.31826769   -5.64734124    1.03677384    h      0.000     0
         -3.07438216   -1.65818489    0.93384272    c      0.000     0
         -5.10438105   -1.89227720    0.90671891    h      0.000     0
         -2.02704355    0.75816928    0.89946045    c      0.000     0
         -3.24460982    2.39882056    0.84266658    h      0.000     0
          0.32213778    0.95645082    9.13624764    c      6.000     0
          3.05515170    1.29430996    8.27649503    c      6.000     0
          3.84100701    3.05794955    9.00105945    h      1.000     0
          4.23320569   -0.25642883    8.95463056    h      1.000     0
          3.16968637    1.33095418    6.21870758    h      1.000     0
          0.21935298    0.89716796   12.01782548    c      6.000     0
         -1.71910923    0.65637825   12.67750577    h      1.000     0
          1.34450708   -0.66315409   12.75964453    h      1.000     0
          0.95312322    2.65061578   12.81700121    h      1.000     0
         -0.71604003   -1.51813039    8.07744161    c      6.000     0
         -2.67166772   -1.80210905    8.66830528    h      1.000     0
          0.39220229   -3.12245829    8.74982746    h      1.000     0
         -0.66165403   -1.51898601    6.01704629    h      1.000     0
         -1.26782636    3.15717237    8.16076067    c      6.000     0
         -1.22711985    3.22525994    6.10096190    h      1.000     0
         -3.23274309    2.96107630    8.75504643    h      1.000     0
         -0.55794583    4.95372455    8.88283808    h      1.000     0
 
       center of nuclear mass  :   -0.08327502   -0.24547299    4.89158483
       center of nuclear charge:    0.32238448    0.95701539    9.13369517

              +--------------------------------------------------+
              |               basis set information              |
              +--------------------------------------------------+

              we will work with the 1s 3p 5d 7f 9g ... basis set
              ...i.e. with spherical basis functions...

   type   atoms  prim   cont   basis
   ---------------------------------------------------------------------------
    c       11     50     30   cc-pVTZ   [4s3p2d1f|18s5p2d1f]
    h       18     16     14   cc-pVTZ   [3s2p1d|5s2p1d]
   ---------------------------------------------------------------------------
   total:   29    838    582
   ---------------------------------------------------------------------------

   total number of primitive shells          :   34
   total number of contracted shells         :  218
   total number of cartesian basis functions :  655
   total number of SCF-basis functions       :  582


 integral neglect threshold       :  0.51E-13
 integral storage threshold THIZE :  0.10E-04
 integral storage threshold THIME :         5


 DENSITY CONVERGENCE CHECK SWITCHED ON !
 SCF CONVERGENCE IF RMS(delta[D]) <     0.1000000000E-06


 symmetry group of the molecule :   c1 

 the group has the following generators :
   c1(z)

    1 symmetry operations found

 there are 1 real representations :   a   

 maximum number of shells which are related by symmetry :  1


    mo occupation :
   irrep   mo's   occupied
    a      582       21
 
 number of basis functions   :                    582
 number of occupied orbitals :                     21
 

 automatic virtual orbital shift switched on 
      shift if e(lumo)-e(homo) < 0.10000000    


          ------------------------
          nuclear repulsion energy  :   199.373296426    
          ------------------------


         -----------------
         -S,T+V- integrals
         -----------------

 1e-integrals will be neglected if expon. factor < 0.510223E-14
 
   Difference densities algorithm switched on.
   The maximal number of linear combinations of
   difference densities is                    20 .

 DIIS switched on: error vector is FDS-SDF
 Max. Iterations for DIIS is     :   5
 DIIS matrix (see manual) 
    Scaling factor of diagonals  :  1.200
    threshold for scaling factor :  0.000

 scf convergence criterion : increment of total energy < .1000000D-08
                  and increment of one-electron energy < .1000000D-05

  MOs are in ASCII format !


 reading orbital data $scfmo  from file mos
 orbital characterization : scfconv=9

 DSCF restart information will be dumped onto file mos

 
                                              current damping :  0.700
 ITERATION  ENERGY          1e-ENERGY        2e-ENERGY     RMS[dD(SAO)]   TOL
   1  -196.35817610920    -659.12010441     263.38863187    0.000D+00 0.509D-13
          max. resid. norm for Fia-block=  8.571D-02 for orbital      2a         
          max. resid. fock norm         =  2.365D-01 for orbital    525a         
          Delta Eig. =    20.8067182054 eV 
 
                                              current damping :  0.650
 ITERATION  ENERGY          1e-ENERGY        2e-ENERGY     RMS[dD(SAO)]   TOL
   2  -196.39400073761    -658.46277988     262.69548271    0.452D-03 0.324D-13
          Norm of current diis error: 0.42352    
          max. resid. norm for Fia-block=  4.206D-02 for orbital      5a         
          max. resid. fock norm         =  9.241D-02 for orbital    531a         
          Delta Eig. =     9.7042586441 eV 
 
                                              current damping :  0.600
 ITERATION  ENERGY          1e-ENERGY        2e-ENERGY     RMS[dD(SAO)]   TOL
   3  -196.40164915983    -658.65420919     262.87926360    0.236D-03 0.244D-13
          Norm of current diis error: 0.19173    
          max. resid. norm for Fia-block=  1.718D-02 for orbital      5a         
          max. resid. fock norm         =  3.926D-02 for orbital    513a         
          Delta Eig. =     3.6724325227 eV 
 
                                              current damping :  0.650
 ITERATION  ENERGY          1e-ENERGY        2e-ENERGY     RMS[dD(SAO)]   TOL
   4  -196.40327536939    -658.57453492     262.79796313    0.101D-03 0.217D-13
          Norm of current diis error: 0.77391E-01
          max. resid. norm for Fia-block=  6.466D-03 for orbital      5a         
          max. resid. fock norm         =  1.418D-02 for orbital    519a         
          Delta Eig. =     1.3836161634 eV 
 
                                              current damping :  0.500
 ITERATION  ENERGY          1e-ENERGY        2e-ENERGY     RMS[dD(SAO)]   TOL
   5  -196.40353673379    -658.56903380     262.79220064    0.411D-04 0.200D-13
          Norm of current diis error: 0.32873E-01
          max. resid. norm for Fia-block=  2.515D-03 for orbital      5a         
          max. resid. fock norm         =  5.920D-03 for orbital    541a         
 mo-orthogonalization: Cholesky decomposition
          Delta Eig. =     0.5877952171 eV 
 
                                              current damping :  0.350
 ITERATION  ENERGY          1e-ENERGY        2e-ENERGY     RMS[dD(SAO)]   TOL
   6  -196.40358688308    -658.56300061     262.78611731    0.188D-04 0.187D-13
          Norm of current diis error: 0.12107E-01
          max. resid. norm for Fia-block=  8.876D-04 for orbital     12a         
          max. resid. fock norm         =  2.004D-03 for orbital    538a         
          Delta Eig. =     0.2169205544 eV 
 
                                              current damping :  0.200
 ITERATION  ENERGY          1e-ENERGY        2e-ENERGY     RMS[dD(SAO)]   TOL
   7  -196.40359420374    -658.56043861     262.78354798    0.773D-05 0.174D-13
          Norm of current diis error: 0.36652E-02
          max. resid. norm for Fia-block=  2.648D-04 for orbital     12a         
          max. resid. fock norm         =  5.210D-04 for orbital    571a         
          Delta Eig. =     0.0639852381 eV 
 
                                              current damping :  0.050
 ITERATION  ENERGY          1e-ENERGY        2e-ENERGY     RMS[dD(SAO)]   TOL
   8  -196.40359494342    -658.55981525     262.78292388    0.272D-05 0.163D-13
          Norm of current diis error: 0.85192E-03
          max. resid. norm for Fia-block=  6.014D-05 for orbital     12a         
          max. resid. fock norm         =  8.837D-05 for orbital    520a         
          Delta Eig. =     0.0120282042 eV 
 
                                              current damping :  0.050
 ITERATION  ENERGY          1e-ENERGY        2e-ENERGY     RMS[dD(SAO)]   TOL
   9  -196.40359499064    -658.55941231     262.78252089    0.795D-06 0.153D-13
          Norm of current diis error: 0.14839E-03
          max. resid. norm for Fia-block=  1.286D-05 for orbital     19a         
          max. resid. fock norm         =  1.361D-05 for orbital     19a         
          Delta Eig. =     0.0010325332 eV 
 
                                              current damping :  0.100
 ITERATION  ENERGY          1e-ENERGY        2e-ENERGY     RMS[dD(SAO)]   TOL
  10  -196.40359499243    -658.55944810     262.78255668    0.188D-06 0.147D-13
          Norm of current diis error: 0.37338E-04
          max. resid. norm for Fia-block=  3.339D-06 for orbital     21a         
          max. resid. fock norm         =  3.378D-06 for orbital     21a         
 mo-orthogonalization: Cholesky decomposition
          Delta Eig. =     0.0000759764 eV 

 DENSITY CONVERGED !

 
                                              current damping :  0.150
 ITERATION  ENERGY          1e-ENERGY        2e-ENERGY     RMS[dD(SAO)]   TOL
  11  -196.40359499254    -658.55938627     262.78249485    0.485D-07 0.143D-13
          Norm of current diis error: 0.12271E-04
          max. resid. norm for Fia-block=  1.090D-06 for orbital     19a         
          max. resid. fock norm         =  1.486D-06 for orbital    571a         
          Delta Eig. =     0.0001104278 eV 

 DENSITY CONVERGED !

 
                                              current damping :  0.200
 ITERATION  ENERGY          1e-ENERGY        2e-ENERGY     RMS[dD(SAO)]   TOL
  12  -196.40359499256    -658.55940670     262.78251529    0.133D-07 0.141D-13
          Norm of current diis error: 0.30950E-05
          max. resid. norm for Fia-block=  2.793D-07 for orbital     20a         
          max. resid. fock norm         =  2.906D-07 for orbital     21a         
          Delta Eig. =     0.0000104768 eV 

 ENERGY & DENSITY CONVERGED !

 
                                              current damping :  0.250
 ITERATION  ENERGY          1e-ENERGY        2e-ENERGY     RMS[dD(SAO)]   TOL
  13  -196.40359499256    -658.55940245     262.78251104    0.322D-08 0.145D-13
          max. resid. norm for Fia-block=  5.660D-08 for orbital     20a         
          max. resid. fock norm         =  5.967D-08 for orbital     20a         

 convergence criteria satisfied after    13 iterations


                  ------------------------------------------ 
                 |  total energy      =   -196.40359499256  |
                  ------------------------------------------ 
                 :  kinetic energy    =    196.25761866755  :
                 :  potential energy  =   -392.66121366011  :
                 :  virial theorem    =      1.99925675329  :
                 :  wavefunction norm =      1.00000000000  :
                  .......................................... 


 orbitals $scfmo  will be written to file mos

    irrep                 17a         18a         19a         20a         21a   
 eigenvalues H         -0.50938    -0.50891    -0.45293    -0.45200    -0.45194
            eV         -13.8610    -13.8482    -12.3248    -12.2997    -12.2980
 occupation              2.0000      2.0000      2.0000      2.0000      2.0000 

    irrep                 22a         23a         24a         25a         26a   
 eigenvalues H          0.06593     0.10769     0.10923     0.14132     0.16823
            eV           1.7942      2.9303      2.9723      3.8455      4.5778
 
 
 
 
 ==============================================================================
                           electrostatic moments
 ==============================================================================

 reference point for electrostatic moments:    0.00000   0.00000   0.00000

 
              nuc           elec       ->  total
 ------------------------------------------------------------------------------
                          charge      
 ------------------------------------------------------------------------------
          42.000000     -42.000000       0.000000
 
 ------------------------------------------------------------------------------
                       dipole moment  
 ------------------------------------------------------------------------------
   x      13.540148     -13.540545      -0.000397
   y      40.194647     -40.195505      -0.000859
   z     383.615197    -383.613781       0.001416
 
   | dipole moment | =     0.0017 a.u. =     0.0043 debye 
 
 ------------------------------------------------------------------------------
                     quadrupole moment
 ------------------------------------------------------------------------------
  xx     138.024553    -164.656765     -26.632212
  yy     172.103367    -198.731532     -26.628165
  zz    3637.816821   -3664.401522     -26.584701
  xy      12.947201     -12.945415       0.001786
  xz     123.725124    -123.722309       0.002815
  yz     367.270906    -367.261939       0.008968
 
     1/3  trace=     -26.615026
     anisotropy=       0.048538
 
 ==============================================================================
 


    ------------------------------------------------------------------------
         total  cpu-time :  1 hours  5 minutes and 51 seconds
         total wall-time :  3 minutes and 18 seconds
    ------------------------------------------------------------------------

   ****  dscf : all done  ****


    2019-04-01 22:54:19.473 

