Using Slurm to start processes with PMI2
STARTING ridft ON 8 PROCESSORS!
RUNNING PROGRAM /modfac/apps/TURBOMOLE/7.0_intel_GA/bin/em64t-unknown-linux-gnu_mpi/ridft_mpi.
PLEASE WAIT UNTIL ridft HAS FINISHED.
Look for the output in slave1.output.
  this is node-proc. number 1 running on node c-15-18.local
  the total number of node-proc. spawned is            8
  parallel platform: MPP, or cluster with fast interconnect

 ridft (c-15-18.local) : TURBOMOLE V7.0.2( ) 15 Jan 2016 at 17:47:42
 Copyright (C) 2016 TURBOMOLE GmbH, Karlsruhe


    2016-02-15 18:48:26.643 



                                  r i d f t

                        DFT program with RI approximation 
                                for coulomb part 




                                                 
                                 References:     
                                                 
          TURBOMOLE:                             
              R. Ahlrichs, M. Baer, M. Haeser, H. Horn, and
              C. Koelmel
              Electronic structure calculations on workstation
              computers: the program system TURBOMOLE
              Chem. Phys. Lett. 162: 165 (1989)
          Density Functional:                              
              O. Treutler and R. Ahlrichs                      
              Efficient Molecular Numerical Integration Schemes
              J. Chem. Phys. 102: 346 (1995)                   
          Parallel Version:                                
              Performance of parallel TURBOMOLE for Density    
              Functional Calculations                          
              M. v. Arnim and R. Ahlrichs                      
              J. Comp. Chem. 19: 1746 (1998)                   
          RI-J Method:                                     
              Auxiliary Basis Sets to approximate Coulomb      
              Potentials                                       
              Chem. Phys. Lett. 240: 283 (1995)                
              K. Eichkorn, O. Treutler, H. Oehm, M. Haeser     
              and R. Ahlrichs                                  
              Chem. Phys. Lett. 242: 652 (1995)                
                                                           
              Auxiliary Basis Sets for Main Row Atoms and their
              Use to approximate Coulomb Potentials            
              K. Eichkorn, F. Weigend, O. Treutler and         
              R. Ahlrichs                                      
              Theo. Chem. Acc. 97: 119 (1997)                   
                                                           
              Accurate Coulomb-fitting basis sets for H to Rn 
              F. Weigend                                        
              Phys. Chem. Chem. Phys. 8: 1057 (2006)            
                                                           
          Multipole accelerated RI-J (MARI-J):             
              Fast evaluation of the Coulomb potential for     
              electron densities using multipole accelerated   
              resolution of identity approximation             
              M. Sierka, A. Hogekamp and R. Ahlrichs           
              J. Chem. Phys. 118: 9136 (2003)                  
          RI-JK Method:                                     
              A fully direct RI-HF algorithm: Implementation,
              optimised auxiliary basis sets, demonstration of
              accuracy and efficiency                         
              F. Weigend                                      
              Phys. Chem. Chem. Phys. 4: 4285 (2002)           
          Two-component HF and DFT with spin-orbit coupling:  
              Self-consistent treatment of spin-orbit         
              interactions with efficient Hartree-Fock and    
              density functional methods                      
              M. K. Armbruster, F. Weigend, C. van Wüllen and 
              W. Klopper                                      
              Phys. Chem. Chem. Phys. 10: 1748 (2008)         
          Relativistic all-electron 2c calculations           
              An efficient implementation of two-component    
              relativistic exact-decoupling methods for large 
              molecules                                       
              D. Peng, N. Middendorf, F. Weigend, M. Reiher   
              J. Chem. Phys. 138, 184105 (2013)               
                                         


 


              +--------------------------------------------------+
              |      general information about current run       |
              +--------------------------------------------------+

 

 SCF run will be profiled !


 DENSITY CONVERGENCE CHECK SWITCHED ON !
 SCF CONVERGENCE IF RMS(delta[D]) <     0.1000000000E-06

 TPSS meta-GGA functional
 exchange:    LDA + TPSS
 correlation: LDA (PW) + TPSS
 A DFT calculation using the RI-J approximation will be carried out.
 Allocatable memory for RI due to $ricore (MB):        5000


              +--------------------------------------------------+
              | Atomic coordinate, charge and isotop information |
              +--------------------------------------------------+

                    atomic coordinates            atom    charge  isotop
         -0.07022222    6.58471292   -2.12953238    c      6.000     0
          0.01787681   -6.60597233    2.18263368    c      6.000     0
        -10.47734088   -1.15156131    0.76159743    c      6.000     0
        -10.43720310    0.76921302   -1.45862291    c      6.000     0
         -0.70817487    8.79376497   -4.00480211    c      6.000     0
         -0.62551825   -8.76394509    4.11567234    c      6.000     0
        -12.85289670   -2.81665570    0.62332616    c      6.000     0
        -12.87466635    2.34809810   -1.48487121    c      6.000     0
         -5.66829023   -0.54582850    3.79963454    c      6.000     0
         -5.42525255    0.35103553   -4.18260644    c      6.000     0
        -15.26825016   -1.22072529    0.58681666    c      6.000     0
        -15.22784782    0.66620405   -1.61031123    c      6.000     0
          8.85117485    4.27187710   -5.47931761    c      6.000     0
          8.68319709   -3.60319751    5.68556232    c      6.000     0
          6.27547813  -10.04797620   -4.26579218    c      6.000     0
          5.73938172    9.92075984    4.78391729    c      6.000     0
          3.72092745    7.38087343   -0.01810358    c      6.000     0
          3.93703653   -7.37592235    0.30772300    c      6.000     0
         -0.45733262    7.48477058    0.51638656    c      6.000     0
         -0.20195503   -7.62884330   -0.43597872    c      6.000     0
          2.82566969   -6.06522720    2.27073272    c      6.000     0
          2.75582541    6.15177666   -2.10591080    c      6.000     0
          7.93955207    6.58699948   -1.40984908    c      6.000     0
          8.05106481   -6.35537575    1.84817106    c      6.000     0
         -4.15909825   -4.42866768    1.31360533    c      6.000     0
         -4.20450836    4.24674374   -1.56493890    c      6.000     0
          4.41114992    5.11390127   -3.91201655    c      6.000     0
          4.35149126   -4.82110710    4.05890497    c      6.000     0
         -1.86298651   -4.49938123    2.76568978    c      6.000     0
         -1.83522643    4.43074638   -2.87924343    c      6.000     0
          6.55451509   -7.61423571   -0.04781007    c      6.000     0
          6.30881290    7.65437350    0.49646885    c      6.000     0
         -8.28763962    2.46446744   -1.21462147    n      7.000     0
         -8.25725282   -2.76967711    0.66518360    n      7.000     0
          7.03533701    5.35036270   -3.57668465    c      6.000     0
          6.99616299   -4.95055334    3.83854400    c      6.000     0
         -6.01923127    2.38096044   -2.29716998    c      6.000     0
         -6.07176565   -2.60714176    1.89976058    c      6.000     0
         -4.49427897   -6.16659211   -0.84166512    c      6.000     0
         -4.72573263    5.92682366    0.60441001    c      6.000     0
         -2.34390291   -7.61506719   -1.78433611    c      6.000     0
         -2.67405696    7.38204506    1.73182062    c      6.000     0
          7.38986853    8.81470314    2.74305087    c      6.000     0
          7.78731573   -8.91196734   -2.13395434    c      6.000     0
          2.10893436   -8.45465362   -1.28875543    o      8.000     0
          1.78354242    8.31188481    1.53734890    o      8.000     0
         10.57910263   -6.44228426    1.69861813    o      8.000     0
         10.45413504    6.70427589   -1.09651359    o      8.000     0
          3.33665164   -3.47904250    5.95944033    o      8.000     0
          3.53106666    3.87773692   -5.94753506    o      8.000     0
          9.74331456    8.88961188    3.02819164    o      8.000     0
         10.15002142   -9.06654694   -2.21734795    o      8.000     0
         -6.53686505   -6.30316262   -2.06669899    o      8.000     0
         -6.85237372    5.99107435    1.68168618    o      8.000     0
         -1.38492359   -3.13766348    4.63946663    o      8.000     0
         -1.19916351    3.13702097   -4.75774459    o      8.000     0
         10.70025297    7.61451917    0.58836623    h      1.000     0
         10.94846850   -7.51313536    0.13825236    h      1.000     0
         -8.38762503    3.92586825    0.13093912    h      1.000     0
         -8.22580778   -4.24785868   -0.66410645    h      1.000     0
          1.65292455    3.58033182   -5.69287556    h      1.000     0
          1.44743573   -3.33005649    5.64544344    h      1.000     0
        -10.49338465   -0.08745653    2.53359362    h      1.000     0
        -10.29673975   -0.29358785   -3.22597038    h      1.000     0
         -2.51514989   -8.44477035   -3.64873991    h      1.000     0
         -2.96911880    8.12204292    3.61778620    h      1.000     0
        -12.93286991    3.50874900    0.23562995    h      1.000     0
        -12.75259004   -3.97562474   -1.09653249    h      1.000     0
        -12.84484647   -4.11916833    2.23133193    h      1.000     0
        -12.80376382    3.65095089   -3.09113842    h      1.000     0
        -15.44206717   -0.18831121    2.37952425    h      1.000     0
        -15.24273886   -0.36947925   -3.40972735    h      1.000     0
         -5.45730230   -1.35595409    5.68875596    h      1.000     0
         -3.65110207   -0.56982802   -3.67462916    h      1.000     0
        -16.91869917   -2.46176513    0.44616434    h      1.000     0
        -16.92769427    1.84673486   -1.58342042    h      1.000     0
         -3.89396967    0.43138668    3.40885807    h      1.000     0
         -6.91571734   -1.06452053   -4.28022969    h      1.000     0
          7.64411228   -2.09653776    6.63783312    h      1.000     0
          7.95567143    2.74960822   -6.54531213    h      1.000     0
         -7.20985322    0.81696640    3.79028040    h      1.000     0
         -5.11930589    1.18285518   -6.04878658    h      1.000     0
         10.33179417   -2.81782733    4.71739893    h      1.000     0
         10.55079453    3.56411797   -4.54539606    h      1.000     0
          7.58794962  -10.86001042   -5.63195079    h      1.000     0
          6.95851964   10.69961047    6.25225340    h      1.000     0
          0.58611746  -10.39617714    3.75171109    h      1.000     0
          0.41908456   10.45449409   -3.51859447    h      1.000     0
          4.50907553    8.46039838    5.57871721    h      1.000     0
          5.11187926   -8.59432327   -5.16811751    h      1.000     0
         -0.27801651   -8.06586136    6.02769724    h      1.000     0
         -0.24556991    8.19230294   -5.92542526    h      1.000     0
         -2.71684036    9.26595084   -3.88864064    h      1.000     0
         -2.60736853   -9.31986473    3.92879732    h      1.000     0
          4.98604240  -11.50525741   -3.56606439    h      1.000     0
          4.51143768   11.39837450    4.01854042    h      1.000     0
          9.45501794    5.72243088   -6.83217255    h      1.000     0
          9.39687107   -4.90281886    7.13473660    h      1.000     0
          5.37744248   -1.46325274   -2.07862316    c      0.000     0
          3.66733481   -0.28338333   -0.32336994    c      0.000     0
          8.94745640    0.29311542    0.09339027    c      0.000     0
          4.69780247    1.19031959    1.67701856    c      0.000     0
          7.27457634    1.46478342    1.82985961    c      0.000     0
          8.04303347   -1.18270400   -1.84153812    c      0.000     0
          3.08554483    2.42769337    3.53216270    n      0.000     0
          4.06423399   -2.74066981   -3.78139868    n      0.000     0
          1.59717763   -2.36162854   -3.10691763    o      0.000     0
          1.31621315   -0.85995767   -0.97341683    n      0.000     0
         10.01530284   -2.64996296   -3.95534797    cl     0.000     0
          0.77949313    2.29407083    3.19187972    o      0.000     0
          4.11616367    3.54291525    5.30899660    o      0.000     0
         10.96385087    0.57485469    0.30209162    h      0.000     0
          8.03451080    2.60855906    3.34882147    h      0.000     0
 
       center of nuclear mass  :    1.11888137   -0.07326547   -0.07816068
       center of nuclear charge:   -0.06565545   -0.02577760   -0.00439249

              +--------------------------------------------------+
              |               basis set information              |
              +--------------------------------------------------+

              we will work with the 1s 3p 5d 7f 9g ... basis set
              ...i.e. with spherical basis functions...

   type   atoms  prim   cont   basis
   ---------------------------------------------------------------------------
    c       48     77     55   cc-pVQZ   [5s4p3d2f1g|21s6p3d2f1g]
    n        5     77     55   cc-pVQZ   [5s4p3d2f1g|21s6p3d2f1g]
    o       15     77     55   cc-pVQZ   [5s4p3d2f1g|21s6p3d2f1g]
    h       44     32     30   cc-pVQZ   [4s3p2d1f|6s3p2d1f]
    cl       1    137     59   cc-pVQZ   [6s5p3d2f1g|42s19p3d2f1g]
   ---------------------------------------------------------------------------
   total:  113   6781   5119
   ---------------------------------------------------------------------------

   total number of primitive shells          :  178
   total number of contracted shells         : 1477
   total number of cartesian basis functions : 6374
   total number of SCF-basis functions       : 5119


 integral neglect threshold       :  0.52E-14
 integral storage threshold THIZE :  0.10E-04
 integral storage threshold THIME :         5

 RI-J AUXILIARY BASIS SET information:

              we will work with the 1s 3p 5d 7f 9g ... basis set
              ...i.e. with spherical basis functions...

   type   atoms  prim   cont   basis
   ---------------------------------------------------------------------------
    c       48     70     49   cc-pVQZ   [6s4p3d1f1g|12s5p4d2f1g]
    n        5     70     49   cc-pVQZ   [6s4p3d1f1g|12s5p4d2f1g]
    o       15     70     49   cc-pVQZ   [6s4p3d1f1g|12s5p4d2f1g]
    h       44     16     11   cc-pVQZ   [3s1p1d|5s2p1d]
    cl       1     77     51   cc-pVQZ   [8s4p3d1f1g|14s5p5d2f1g]
   ---------------------------------------------------------------------------
   total:  113   5541   3867
   ---------------------------------------------------------------------------

   total number of primitive shells          :  107
   total number of contracted shells         : 1257
   total number of cartesian basis functions : 4739
   total number of SCF-basis functions       : 3867


 symmetry group of the molecule :   c1 

 the group has the following generators :
   c1(z)

    1 symmetry operations found

 there are 1 real representations :   a   

 maximum number of shells which are related by symmetry :  1


    mo occupation :
   irrep   mo's   occupied
    a     5119      202
 
 number of basis functions   :         5119
 number of occupied orbitals :          202
 
  
           ------------------
           density functional
           ------------------
 Dummy atoms with grid-point found.
 DFT quadrature threshold dgrenze tightened by factor 1/10.

 TPSS meta-GGA functional
 exchange:    LDA + TPSS
 correlation: LDA (PW) + TPSS
 Dummy atoms with grid-point found.
 DFT quadrature threshold dgrenze tightened by factor 1/10.

 Dummy atoms with grid-point found.
 DFT quadrature threshold dgrenze tightened by factor 1/10.

 grinp -> nfun, dfgga, dfhybrid 
           5 F F
 iterations will be done with small grid
  
 spherical integration : Lebedev's spherical grid
 spherical gridsize    :           5
    i.e. gridpoints    :         590
 value for diffuse not defined
 radial integration    : Chebyshev 2nd kind (scaling 3)
 radial gridsize       :           8
 integration cells     :         113
 partition function    : becke
 partition sharpness   :           3
  
 found dummy atom(s) with basis: included in dft

 <rddim> : input of entry tasksize
           from data group '$pardft' failed !

               Default values taken

 <rddim> : input of entry memdiv
           from data group '$pardft' failed !

               Default values taken
  RIDFT: memory allocation for DFT gridpoints
  MEMORY is divided by 1 as DEFAULT
 Each node can hold at most  the            1 -th part
 of the gridpoints    

 biggest AO integral is expected to be    10.299525420
  
           ------------------------
               RI-J - INFORMATION
           ------------------------
 
 
 **************************************************
 *      MEMORY ALLOCATION FOR PARALLEL RI-DFT     *
 **************************************************
 
 
MEMORY FOR (MU NU/ ALPHA), SEQUENTIAL RUN               4876 MByte
 
            DIFFERENCE IN MEMORY NEED:       DIAG./SLAVE  
 
      TOTAL DIFFERENCE :                   1188 MByte
 
      difference in xcore:                  124 MByte
      difference in fatmat:                 354 MByte
      getcor calls skipped by slaves:       710 MByte
 
 
           Integral memory available for diagonal.      4876 MByte
 
           Integral memory available for slave             0 MByte
 
         MEMORY FOR (MU NU/ ALPHA) ON DIAGONALIZER      4876 MByte
 
         MEMORY FOR (MU NU/ ALPHA) ON ONE SLAVE            0 MByte
 
         TOTAL MEMORY FOR (MU NU/ ALPHA),ALL NODES      4876 MByte
 
 Contributions to RI integral batches: 
  neglected integral batches:      713788
  direct contribution:             341373
  memory contribution:       36342
 Memory core needed for (P|Q) and Cholesky    115 MByte
 Memory core minimum needed except of (P|Q)    11 MByte
 Total minimum memory core needed (sum)       125 MByte
     number of direct tasks:         160
  
 ****************************************
 Memory allocated for RI-J  5001 MByte
 ****************************************
                                            

          ------------------------
          nuclear repulsion energy  :   8152.50846353    
          ------------------------

 
          -----------------
          -S integrals
          -----------------

 1e-integrals will be neglected if expon. factor < 0.524311E-15
 
          -----------------
          -T+V integrals
          -----------------

 1e-integrals will be neglected if expon. factor < 0.524311E-15
 Difference densities >>NOT<< switched on in parallel ridft!

 automatic virtual orbital shift switched on 
      shift if e(lumo)-e(homo) < 0.10000000    


 DIIS switched on: error vector is FDS-SDF
 Max. Iterations for DIIS is     :   4
 DIIS matrix (see manual) 
    Scaling factor of diagonals  :  1.200
    threshold for scaling factor :  0.000

 scf convergence criterion : increment of total energy < .1000000D-08
                  and increment of one-electron energy < .1000000D-05


 <geterg> : there is no data group $energy 

  MOs are in ASCII format !


 reading orbital data $scfmo  from file mos . 

 orbital characterization : expanded
 
 mo provided and orthogonalized by Cholesky decomposition

 DSCF restart information will be dumped onto file mos


 Starting SCF iterations


 ITERATION  ENERGY          1e-ENERGY        2e-ENERGY     RMS[dD(SAO)]   TOL
   1  -2629.6536424696    -19751.912237     8969.7501312    0.000D+00 0.523D-14
                            Exc = -357.674574580     Coul =  9327.42470576    
                              N = 404.00030686    
                            current damping = 0.700
 
          max. resid. norm for Fia-block=  3.668D-01 for orbital    126a         
          max. resid. fock norm         =  1.992D+01 for orbital   4770a         

 ITERATION  ENERGY          1e-ENERGY        2e-ENERGY     RMS[dD(SAO)]   TOL
   2  -2637.8356231907    -19808.531830     9018.1877430    0.872D-02 0.523D-14
                            Exc = -359.147182527     Coul =  9377.33492557    
                              N = 404.00020208    
                            current damping = 0.650
 
          Norm of current diis error:  8.3426    
          max. resid. norm for Fia-block=  1.573D-01 for orbital      7a         
          max. resid. fock norm         =  2.976D-01 for orbital   4623a         

 ITERATION  ENERGY          1e-ENERGY        2e-ENERGY     RMS[dD(SAO)]   TOL
   3  -2639.0574647856    -19827.140343     9035.5744145    0.282D-02 0.523D-14
                            Exc = -361.358211326     Coul =  9396.93262581    
                              N = 404.00018246    
                            current damping = 0.550
 
          Norm of current diis error:  4.2078    
          max. resid. norm for Fia-block=  6.076D-02 for orbital      5a         
          max. resid. fock norm         =  7.135D-02 for orbital   5047a         

 ITERATION  ENERGY          1e-ENERGY        2e-ENERGY     RMS[dD(SAO)]   TOL
   4  -2639.4771623778    -19832.630716     9040.6450905    0.109D-02 0.523D-14
                            Exc = -361.011676946     Coul =  9401.65676745    
                              N = 404.00017932    
                            current damping = 0.450
 
          Norm of current diis error:  1.7699    
          max. resid. norm for Fia-block=  3.508D-02 for orbital     67a         
          max. resid. fock norm         =  6.906D-02 for orbital   4874a         

 ITERATION  ENERGY          1e-ENERGY        2e-ENERGY     RMS[dD(SAO)]   TOL
   5  -2639.5402240390    -19835.326710     9043.2780224    0.687D-03 0.523D-14
                            Exc = -361.877981185     Coul =  9405.15600360    
                              N = 404.00018695    
                            current damping = 0.350
 
          Norm of current diis error:  1.0175    
          max. resid. norm for Fia-block=  1.444D-02 for orbital    191a         
          max. resid. fock norm         =  1.796D-02 for orbital    191a         
          mo-orthogonalization: Cholesky decomposition

 ITERATION  ENERGY          1e-ENERGY        2e-ENERGY     RMS[dD(SAO)]   TOL
   6  -2639.5641158435    -19838.217104     9046.1445251    0.407D-03 0.523D-14
                            Exc = -361.806657412     Coul =  9407.95118253    
                              N = 404.00018999    
                            current damping = 0.250
 
          Norm of current diis error: 0.44842    
          max. resid. norm for Fia-block=  6.370D-03 for orbital    194a         
          max. resid. fock norm         =  1.671D-02 for orbital   4849a         

 ITERATION  ENERGY          1e-ENERGY        2e-ENERGY     RMS[dD(SAO)]   TOL
   7  -2639.5660337684    -19836.751070     9044.6765725    0.251D-03 0.523D-14
                            Exc = -361.749817745     Coul =  9406.42639028    
                              N = 404.00018888    
                            current damping = 0.300
 
          Norm of current diis error: 0.35553    
          max. resid. norm for Fia-block=  3.497D-03 for orbital    195a         
          max. resid. fock norm         =  8.599D-03 for orbital   4929a         

 ITERATION  ENERGY          1e-ENERGY        2e-ENERGY     RMS[dD(SAO)]   TOL
   8  -2639.5689828031    -19837.107700     9045.0302536    0.504D-04 0.523D-14
                            Exc = -361.787450565     Coul =  9406.81770414    
                              N = 404.00019151    
                            current damping = 0.350
 
          Norm of current diis error: 0.11861    
          max. resid. norm for Fia-block=  1.888D-03 for orbital    198a         
          max. resid. fock norm         =  4.122D-03 for orbital   4929a         

 ITERATION  ENERGY          1e-ENERGY        2e-ENERGY     RMS[dD(SAO)]   TOL
   9  -2639.5691124566    -19837.238598     9045.1610216    0.360D-04 0.523D-14
                            Exc = -361.823449109     Coul =  9406.98447069    
                              N = 404.00019109    
                            current damping = 0.200
 
          Norm of current diis error: 0.93450E-01
          max. resid. norm for Fia-block=  8.128D-04 for orbital    199a         
          max. resid. fock norm         =  1.764D-03 for orbital   4928a         

 ITERATION  ENERGY          1e-ENERGY        2e-ENERGY     RMS[dD(SAO)]   TOL
  10  -2639.5693112389    -19837.416575     9045.3388005    0.182D-04 0.523D-14
                            Exc = -361.807929909     Coul =  9407.14673041    
                              N = 404.00019119    
                            current damping = 0.050
 
          Norm of current diis error: 0.28209E-01
          max. resid. norm for Fia-block=  3.254D-04 for orbital    200a         
          max. resid. fock norm         =  5.542D-04 for orbital   5061a         
          irrep a   : virtual orbitals shifted by    0.00666
          mo-orthogonalization: Cholesky decomposition

 ITERATION  ENERGY          1e-ENERGY        2e-ENERGY     RMS[dD(SAO)]   TOL
  11  -2639.5693237025    -19837.244982     9045.1671947    0.570D-05 0.523D-14
                            Exc = -361.807424873     Coul =  9406.97461953    
                              N = 404.00019129    
                            current damping = 0.100
 
          Norm of current diis error: 0.16533E-01
          max. resid. norm for Fia-block=  3.007D-04 for orbital    197a         
          max. resid. fock norm         =  4.921D-04 for orbital   4702a         
          irrep a   : virtual orbitals shifted by    0.00219

 ITERATION  ENERGY          1e-ENERGY        2e-ENERGY     RMS[dD(SAO)]   TOL
  12  -2639.5693280592    -19837.288205     9045.2104131    0.309D-05 0.523D-14
                            Exc = -361.806452379     Coul =  9407.01686547    
                              N = 404.00019135    
                            current damping = 0.150
 
          Norm of current diis error: 0.99270E-02
          max. resid. norm for Fia-block=  1.772D-04 for orbital    197a         
          max. resid. fock norm         =  2.858D-04 for orbital   5095a         

 ITERATION  ENERGY          1e-ENERGY        2e-ENERGY     RMS[dD(SAO)]   TOL
  13  -2639.5693303849    -19837.296047     9045.2182532    0.180D-05 0.523D-14
                            Exc = -361.807026521     Coul =  9407.02527977    
                              N = 404.00019130    
                            current damping = 0.050
 
          Norm of current diis error: 0.32902E-02
          max. resid. norm for Fia-block=  4.735D-05 for orbital    196a         
          max. resid. fock norm         =  9.039D-05 for orbital   5096a         
          irrep a   : virtual orbitals shifted by    0.00663

 ITERATION  ENERGY          1e-ENERGY        2e-ENERGY     RMS[dD(SAO)]   TOL
  14  -2639.5693305032    -19837.297749     9045.2199553    0.650D-06 0.523D-14
                            Exc = -361.807368162     Coul =  9407.02732348    
                              N = 404.00019130    
                            current damping = 0.050
 
          Norm of current diis error: 0.25123E-02
          max. resid. norm for Fia-block=  2.673D-05 for orbital    194a         
          max. resid. fock norm         =  5.125D-05 for orbital   5096a         
          irrep a   : virtual orbitals shifted by    0.00664

 ITERATION  ENERGY          1e-ENERGY        2e-ENERGY     RMS[dD(SAO)]   TOL
  15  -2639.5693306301    -19837.294743     9045.2169485    0.363D-06 0.523D-14
                            Exc = -361.807170283     Coul =  9407.02411879    
                              N = 404.00019131    
                            current damping = 0.100
 
          Norm of current diis error: 0.97040E-03
          max. resid. norm for Fia-block=  1.139D-05 for orbital    194a         
          max. resid. fock norm         =  2.695D-05 for orbital   4846a         
          irrep a   : virtual orbitals shifted by    0.00220
          mo-orthogonalization: Cholesky decomposition

 ITERATION  ENERGY          1e-ENERGY        2e-ENERGY     RMS[dD(SAO)]   TOL
  16  -2639.5693306439    -19837.294411     9045.2166172    0.255D-06 0.523D-14
                            Exc = -361.807077420     Coul =  9407.02369463    
                              N = 404.00019131    
                            current damping = 0.050
 
          Norm of current diis error: 0.57748E-03
          max. resid. norm for Fia-block=  6.296D-06 for orbital    192a         
          max. resid. fock norm         =  1.777D-05 for orbital   4929a         
          irrep a   : virtual orbitals shifted by    0.00663

 ITERATION  ENERGY          1e-ENERGY        2e-ENERGY     RMS[dD(SAO)]   TOL
  17  -2639.5693306498    -19837.295538     9045.2177443    0.154D-06 0.523D-14
                            Exc = -361.807141482     Coul =  9407.02488574    
                              N = 404.00019131    
                            current damping = 0.100
 
          Norm of current diis error: 0.32185E-03
          max. resid. norm for Fia-block=  3.717D-06 for orbital    195a         
          max. resid. fock norm         =  1.098D-05 for orbital   4929a         
          irrep a   : virtual orbitals shifted by    0.00219

 DENSITY CONVERGED !


 ITERATION  ENERGY          1e-ENERGY        2e-ENERGY     RMS[dD(SAO)]   TOL
  18  -2639.5693306516    -19837.294898     9045.2171043    0.498D-07 0.523D-14
                            Exc = -361.807163074     Coul =  9407.02426736    
                              N = 404.00019131    
                            current damping = 0.150
 
          Norm of current diis error: 0.17778E-03
          max. resid. norm for Fia-block=  1.952D-06 for orbital    197a         
          max. resid. fock norm         =  4.857D-06 for orbital   4929a         

 DENSITY CONVERGED !


 ITERATION  ENERGY          1e-ENERGY        2e-ENERGY     RMS[dD(SAO)]   TOL
  19  -2639.5693306522    -19837.295265     9045.2174706    0.367D-07 0.523D-14
                            Exc = -361.807136687     Coul =  9407.02460730    
                              N = 404.00019131    
                            current damping = 0.200
 
          Norm of current diis error: 0.95330E-04
          max. resid. norm for Fia-block=  1.506D-06 for orbital    197a         
          max. resid. fock norm         =  2.733D-06 for orbital   4840a         

 DENSITY CONVERGED !


 ITERATION  ENERGY          1e-ENERGY        2e-ENERGY     RMS[dD(SAO)]   TOL
  20  -2639.5693306523    -19837.295013     9045.2172184    0.160D-07 0.523D-14
                            Exc = -361.807138593     Coul =  9407.02435695    
                              N = 404.00019131    
                            current damping = 0.250
 
          Norm of current diis error: 0.42903E-04
          max. resid. norm for Fia-block=  7.351D-07 for orbital    196a         
          max. resid. fock norm         =  1.292D-06 for orbital   4721a         
          mo-orthogonalization: Cholesky decomposition

 DENSITY CONVERGED !


 ITERATION  ENERGY          1e-ENERGY        2e-ENERGY     RMS[dD(SAO)]   TOL
  21  -2639.5693306522    -19837.295090     9045.2172957    0.901D-08 0.523D-14
                            Exc = -361.807141077     Coul =  9407.02443675    
                              N = 404.00019131    
                            current damping = 0.300
 
          Norm of current diis error: 0.20353E-04
          max. resid. norm for Fia-block=  2.262D-07 for orbital    194a         
          max. resid. fock norm         =  5.777D-07 for orbital   4929a         

 ENERGY & DENSITY CONVERGED !


 ITERATION  ENERGY          1e-ENERGY        2e-ENERGY     RMS[dD(SAO)]   TOL
  22  -2639.5685859833    -19837.295102     9045.2180529    0.259D-08 0.523D-14
                            Exc = -361.806397620     Coul =  9407.02445053    
                              N = 404.00007737    
                            current damping = 0.150
 
          Norm of current diis error: 0.85677E-05
          max. resid. norm for Fia-block=  9.084D-08 for orbital    194a         
          max. resid. fock norm         =  2.387D-07 for orbital   4929a         

 End of SCF iterations

   convergence criteria satisfied after   22 iterations


                  ------------------------------------------ 
                 |  total energy      =  -2639.56858598330  |
                  ------------------------------------------ 
                 :  kinetic energy    =   2628.38668589481  :
                 :  potential energy  =  -5267.95527187812  :
                 :  virial theorem    =      1.99576373952  :
                 :  wavefunction norm =      1.00000000000  :
                  .......................................... 


 <geterg> : there is no data group $energy 


 <skperg> : $end is missing 


 orbitals $scfmo  will be written to file mos

    irrep                198a        199a        200a        201a        202a   
 eigenvalues H         -0.21924    -0.20284    -0.20255    -0.18879    -0.18853
            eV          -5.9658     -5.5195     -5.5118     -5.1372     -5.1302
 occupation              2.0000      2.0000      2.0000      2.0000      2.0000 

    irrep                203a        204a        205a        206a        207a   
 eigenvalues H         -0.09961    -0.09943    -0.09285    -0.09193    -0.07662
            eV          -2.7106     -2.7056     -2.5266     -2.5016     -2.0850
 
 
 ! grave: sending quit signal to master process
 
 
 
 
 ==============================================================================
                           electrostatic moments
 ==============================================================================

 reference point for electrostatic moments:    0.00000   0.00000   0.00000

 
              nuc           elec       ->  total
 ------------------------------------------------------------------------------
                          charge      
 ------------------------------------------------------------------------------
         404.000000    -404.000000       0.000000
 
 ------------------------------------------------------------------------------
                       dipole moment  
 ------------------------------------------------------------------------------
   x     -26.524801      20.482622      -6.042179
   y     -10.414148      10.366854      -0.047294
   z      -1.774566       1.603949      -0.170617
 
   | dipole moment | =     6.0448 a.u. =    15.3643 debye 
 
 ------------------------------------------------------------------------------
                     quadrupole moment
 ------------------------------------------------------------------------------
  xx   20417.702364  -20661.813002    -244.110638
  yy   14953.328920  -15198.320616    -244.991696
  zz    3808.313545   -4053.944617    -245.631071
  xy     115.727915    -114.801616       0.926299
  xz     548.437547    -548.400898       0.036650
  yz    -997.074772     993.236920      -3.837852
 
     1/3  trace=    -244.911135
     anisotropy=       6.965186
 
 ==============================================================================
 

    ridft profiling
  --------------------------------------------------------------------
             module   cpu total (s)       %  wall total (s)       %

               RIDFT         28201.4  100.00         28578.8  100.00
         Ridft_b_scf           389.6    1.38           390.3    1.37
        b_scf_prelim             0.0    0.00             0.0    0.00
        b_scf_molinp             0.1    0.00             0.1    0.00
         b_scf_init0             0.0    0.00             0.0    0.00
        b_scf_auxbas             0.0    0.00             0.0    0.00
      b_scf_symmetry             0.0    0.00             0.0    0.00
         b_scf_cosmo             0.0    0.00             0.0    0.00
        b_scf_params            56.2    0.20            56.3    0.20
          b_scf_ri-j            82.7    0.29            82.8    0.29
    b_scf_ri-j_auxpq            82.5    0.29            82.5    0.29
     ri-j_auxpq_chol             6.6    0.02             6.6    0.02
         b_scf_1elec            18.7    0.07            18.7    0.07
       b_scf_moinput           231.9    0.82           232.3    0.81
     moinput_orthmos           230.1    0.82           230.5    0.81
    b_scf_dft-dstmax             0.0    0.00             0.0    0.00
           Ridft_scf         27806.4   98.60         28181.2   98.61
          Scf_b_loop             0.0    0.00             0.0    0.00
                noga             0.0    0.00             0.0    0.00
            Scf_loop         27785.1   98.52         28153.2   98.51
     scf_loop_mkdmat           110.1    0.39           110.4    0.39
       scf_loop_ri-j          4161.9   14.76          4164.7   14.57
      parlp1.bc.dens             6.5    0.02             6.5    0.02
        parlp1.gs.gp            22.4    0.08            22.5    0.08
        parlp2.bc.gq             0.0    0.00             0.0    0.00
        scf_loop_dft         19792.9   70.18         19996.6   69.97
      pardft.bc.dens             0.0    0.00             0.0    0.00
        dft_grid_con            23.6    0.08            23.6    0.08
          dft_xcmrhf         19260.2   68.29         19441.5   68.03
          dft_getval           158.8    0.56           159.2    0.56
          funct2 dst             2.4    0.01             2.4    0.01
      funct2 f2loop1            23.0    0.08            23.1    0.08
      funct2 f2loop2            62.8    0.22            62.9    0.22
          funct2 s+c            68.3    0.24            68.4    0.24
        funct2 cmf_2            61.8    0.22            62.0    0.22
          dft_mkdens         10259.3   36.38         10383.7   36.33
        dft_mgga-fun             3.8    0.01             3.8    0.01
          dft_mkfock          8835.9   31.33          8892.7   31.12
     pardft.red.fock          1662.8    5.90          1688.0    5.91
     scf_loop_energy             1.8    0.01             2.0    0.01
     scf_loop_mkfock             2.6    0.01             2.9    0.01
       scf_loop_diis          1539.3    5.46          1552.2    5.43
       scf_loop_diag          1405.4    4.98          1416.3    4.96
         diag_tritrn           538.1    1.91           543.4    1.90
          diag_rdiag           862.8    3.06           868.3    3.04
     scf_loop_modump           406.4    1.44           540.7    1.89
      scf_loop_ortho           349.3    1.24           349.8    1.22
          Scf_a_loop            21.3    0.08            28.0    0.10
         Ridft_a_scf             5.4    0.02             7.2    0.03
         a_scf_fanal             5.4    0.02             7.1    0.02
 


    ------------------------------------------------------------------------
         total  cpu-time :  7 hours 50 minutes and 30 seconds
         total wall-time :  7 hours 56 minutes and 48 seconds
    ------------------------------------------------------------------------


   ****  ridft : all done  ****


    2016-02-16 02:45:14.337 

