Using Slurm to start processes with PMI2
STARTING ridft ON 8 PROCESSORS!
RUNNING PROGRAM /beegfs/modfac/apps/TURBOMOLE/7.0_intel_GA/bin/em64t-unknown-linux-gnu_mpi/ridft_mpi.
PLEASE WAIT UNTIL ridft HAS FINISHED.
Look for the output in slave1.output.
  this is node-proc. number 1 running on node c-16-33.local
  the total number of node-proc. spawned is            8
  parallel platform: MPP, or cluster with fast interconnect

 ridft (c-16-33.local) : TURBOMOLE V7.0.2( ) 15 Jan 2016 at 17:47:42
 Copyright (C) 2016 TURBOMOLE GmbH, Karlsruhe


    2017-10-30 01:01:44.720 



                                  r i d f t

                        DFT program with RI approximation 
                                for coulomb part 




                                                 
                                 References:     
                                                 
          TURBOMOLE:                             
              R. Ahlrichs, M. Baer, M. Haeser, H. Horn, and
              C. Koelmel
              Electronic structure calculations on workstation
              computers: the program system TURBOMOLE
              Chem. Phys. Lett. 162: 165 (1989)
          Density Functional:                              
              O. Treutler and R. Ahlrichs                      
              Efficient Molecular Numerical Integration Schemes
              J. Chem. Phys. 102: 346 (1995)                   
          Parallel Version:                                
              Performance of parallel TURBOMOLE for Density    
              Functional Calculations                          
              M. v. Arnim and R. Ahlrichs                      
              J. Comp. Chem. 19: 1746 (1998)                   
          RI-J Method:                                     
              Auxiliary Basis Sets to approximate Coulomb      
              Potentials                                       
              Chem. Phys. Lett. 240: 283 (1995)                
              K. Eichkorn, O. Treutler, H. Oehm, M. Haeser     
              and R. Ahlrichs                                  
              Chem. Phys. Lett. 242: 652 (1995)                
                                                           
              Auxiliary Basis Sets for Main Row Atoms and their
              Use to approximate Coulomb Potentials            
              K. Eichkorn, F. Weigend, O. Treutler and         
              R. Ahlrichs                                      
              Theo. Chem. Acc. 97: 119 (1997)                   
                                                           
              Accurate Coulomb-fitting basis sets for H to Rn 
              F. Weigend                                        
              Phys. Chem. Chem. Phys. 8: 1057 (2006)            
                                                           
          Multipole accelerated RI-J (MARI-J):             
              Fast evaluation of the Coulomb potential for     
              electron densities using multipole accelerated   
              resolution of identity approximation             
              M. Sierka, A. Hogekamp and R. Ahlrichs           
              J. Chem. Phys. 118: 9136 (2003)                  
          RI-JK Method:                                     
              A fully direct RI-HF algorithm: Implementation,
              optimised auxiliary basis sets, demonstration of
              accuracy and efficiency                         
              F. Weigend                                      
              Phys. Chem. Chem. Phys. 4: 4285 (2002)           
          Two-component HF and DFT with spin-orbit coupling:  
              Self-consistent treatment of spin-orbit         
              interactions with efficient Hartree-Fock and    
              density functional methods                      
              M. K. Armbruster, F. Weigend, C. van Wüllen and 
              W. Klopper                                      
              Phys. Chem. Chem. Phys. 10: 1748 (2008)         
          Relativistic all-electron 2c calculations           
              An efficient implementation of two-component    
              relativistic exact-decoupling methods for large 
              molecules                                       
              D. Peng, N. Middendorf, F. Weigend, M. Reiher   
              J. Chem. Phys. 138, 184105 (2013)               
                                         


 


              +--------------------------------------------------+
              |      general information about current run       |
              +--------------------------------------------------+

 

 SCF run will be profiled !


 DENSITY CONVERGENCE CHECK SWITCHED ON !
 SCF CONVERGENCE IF RMS(delta[D]) <     0.1000000000E-06

 TPSS meta-GGA functional
 exchange:    LDA + TPSS
 correlation: LDA (PW) + TPSS
 A DFT calculation using the RI-J approximation will be carried out.
 Allocatable memory for RI due to $ricore (MB):       10000


              +--------------------------------------------------+
              | Atomic coordinate, charge and isotop information |
              +--------------------------------------------------+

                    atomic coordinates            atom    charge  isotop
         -2.28170963    0.00000000   -2.34009961    c      6.000     0
         -2.27274361    0.00000000    0.29854732    c      6.000     0
          0.00000000    0.00000000   -3.67272512    c      6.000     0
          0.00000000    0.00000000    1.65224385    c      6.000     0
          2.28170963    0.00000000   -2.34009961    c      6.000     0
          2.27274361    0.00000000    0.29854732    c      6.000     0
          0.00000000    0.00000000    4.58243267    c      6.000     0
          2.15490929    0.00000000    5.59892366    o      8.000     0
         -2.15490929    0.00000000    5.59892366    o      8.000     0
         -4.06540167    0.00000000   -3.36943437    h      1.000     0
         -4.00977500    0.00000000    1.39631906    h      1.000     0
          0.00000000    0.00000000   -5.73046351    h      1.000     0
          4.06540167    0.00000000   -3.36943437    h      1.000     0
          4.00977500    0.00000000    1.39631906    h      1.000     0
 
       center of nuclear mass  :    0.00000000    0.00000000    1.24783966
       center of nuclear charge:   -0.00000000    0.00000000    1.12347881

              +--------------------------------------------------+
              |               basis set information              |
              +--------------------------------------------------+

              we will work with the 1s 3p 5d 7f 9g ... basis set
              ...i.e. with spherical basis functions...

   type   atoms  prim   cont   basis
   ---------------------------------------------------------------------------
    c        7     77     55   cc-pVQZ   [5s4p3d2f1g|21s6p3d2f1g]
    o        2     77     55   cc-pVQZ   [5s4p3d2f1g|21s6p3d2f1g]
    h        5     32     30   cc-pVQZ   [4s3p2d1f|6s3p2d1f]
   ---------------------------------------------------------------------------
   total:   14    853    645
   ---------------------------------------------------------------------------

   total number of primitive shells          :   78
   total number of contracted shells         :  185
   total number of cartesian basis functions :  805
   total number of SCF-basis functions       :  645


 integral neglect threshold       :  0.41E-13
 integral storage threshold THIZE :  0.10E-04
 integral storage threshold THIME :         5

 RI-J AUXILIARY BASIS SET information:

              we will work with the 1s 3p 5d 7f 9g ... basis set
              ...i.e. with spherical basis functions...

   type   atoms  prim   cont   basis
   ---------------------------------------------------------------------------
    c        7     70     49   cc-pVQZ   [6s4p3d1f1g|12s5p4d2f1g]
    o        2     70     49   cc-pVQZ   [6s4p3d1f1g|12s5p4d2f1g]
    h        5     16     11   cc-pVQZ   [3s1p1d|5s2p1d]
   ---------------------------------------------------------------------------
   total:   14    710    496
   ---------------------------------------------------------------------------

   total number of primitive shells          :   56
   total number of contracted shells         :  160
   total number of cartesian basis functions :  609
   total number of SCF-basis functions       :  496


 symmetry group of the molecule :   c1 

 the group has the following generators :
   c1(z)

    1 symmetry operations found

 there are 1 real representations :   a   

 maximum number of shells which are related by symmetry :  1


    mo occupation :
   irrep   mo's   occupied
    a      645       32
 
 number of basis functions   :          645
 number of occupied orbitals :           32
 
  
           ------------------
           density functional
           ------------------
 TPSS meta-GGA functional
 exchange:    LDA + TPSS
 correlation: LDA (PW) + TPSS
 grinp -> nfun, dfgga, dfhybrid 
           5 F F
 iterations will be done with small grid
  
 spherical integration : Lebedev's spherical grid
 spherical gridsize    :           5
    i.e. gridpoints    :         590
 value for diffuse not defined
 radial integration    : Chebyshev 2nd kind (scaling 3)
 radial gridsize       :           8
 integration cells     :          14
 partition function    : becke
 partition sharpness   :           3
  

 <rddim> : input of entry tasksize
           from data group '$pardft' failed !

               Default values taken

 <rddim> : input of entry memdiv
           from data group '$pardft' failed !

               Default values taken
  RIDFT: memory allocation for DFT gridpoints
  MEMORY is divided by 1 as DEFAULT
 Each node can hold at most  the            1 -th part
 of the gridpoints    

 biggest AO integral is expected to be     4.785886462
  
           ------------------------
               RI-J - INFORMATION
           ------------------------
 
 
 **************************************************
 *      MEMORY ALLOCATION FOR PARALLEL RI-DFT     *
 **************************************************
 
 
MEMORY FOR (MU NU/ ALPHA), SEQUENTIAL RUN               9998 MByte
 
            DIFFERENCE IN MEMORY NEED:       DIAG./SLAVE  
 
      TOTAL DIFFERENCE :                     19 MByte
 
      difference in xcore:                    3 MByte
      difference in fatmat:                   6 MByte
      getcor calls skipped by slaves:        12 MByte
 
 
           Integral memory available for diagonal.      9998 MByte
 
           Integral memory available for slave             0 MByte
 
         MEMORY FOR (MU NU/ ALPHA) ON DIAGONALIZER      9998 MByte
 
         MEMORY FOR (MU NU/ ALPHA) ON ONE SLAVE            0 MByte
 
         TOTAL MEMORY FOR (MU NU/ ALPHA),ALL NODES      9998 MByte
 
 Contributions to RI integral batches: 
  neglected integral batches:        2983
  direct contribution:                  0
  memory contribution:       14222
 Memory core needed for (P|Q) and Cholesky      2 MByte
 Memory core minimum needed except of (P|Q)     3 MByte
 Total minimum memory core needed (sum)         5 MByte
  
 ****************************************
 Memory allocated for RI-J 10003 MByte
 ****************************************
                                            

          ------------------------
          nuclear repulsion energy  :   390.759859890    
          ------------------------

 
          -----------------
          -S integrals
          -----------------

 1e-integrals will be neglected if expon. factor < 0.415150E-14
 
          -----------------
          -T+V integrals
          -----------------

 1e-integrals will be neglected if expon. factor < 0.415150E-14
 Difference densities >>NOT<< switched on in parallel ridft!

 automatic virtual orbital shift switched on 
      shift if e(lumo)-e(homo) < 0.10000000    


 DIIS switched on: error vector is FDS-SDF
 Max. Iterations for DIIS is     :   4
 DIIS matrix (see manual) 
    Scaling factor of diagonals  :  1.200
    threshold for scaling factor :  0.000

 scf convergence criterion : increment of total energy < .1000000D-08
                  and increment of one-electron energy < .1000000D-05


 <geterg> : there is no data group $energy 

  MOs are in ASCII format !


 reading orbital data $scfmo  from file mos . 

 orbital characterization : expanded
 
 mo provided and orthogonalized by Cholesky decomposition

 DSCF restart information will be dumped onto file mos


 Starting SCF iterations


 ITERATION  ENERGY          1e-ENERGY        2e-ENERGY     RMS[dD(SAO)]   TOL
   1  -418.84260243946    -1347.9314508     538.32898849    0.000D+00 0.414D-13
                            Exc = -56.9357609688     Coul =  595.264749462    
                              N = 64.000040667    
                            current damping = 0.700
 
          max. resid. norm for Fia-block=  4.123D-01 for orbital     20a         
          max. resid. fock norm         =  1.027D+01 for orbital    565a         

 ITERATION  ENERGY          1e-ENERGY        2e-ENERGY     RMS[dD(SAO)]   TOL
   2  -420.24384866753    -1354.2706579     543.26694932    0.786D-02 0.414D-13
                            Exc = -57.0785761854     Coul =  600.345525510    
                              N = 64.000020896    
                            current damping = 0.650
 
          Norm of current diis error:  3.1744    
          max. resid. norm for Fia-block=  1.679D-01 for orbital      1a         
          max. resid. fock norm         =  3.112D-01 for orbital    324a         

 ITERATION  ENERGY          1e-ENERGY        2e-ENERGY     RMS[dD(SAO)]   TOL
   3  -420.44074298599    -1356.7171698     545.51656694    0.390D-02 0.414D-13
                            Exc = -57.3769591142     Coul =  602.893526052    
                              N = 64.000015315    
                            current damping = 0.550
 
          Norm of current diis error:  1.5318    
          max. resid. norm for Fia-block=  6.432D-02 for orbital      1a         
          max. resid. fock norm         =  8.326D-02 for orbital    555a         

 ITERATION  ENERGY          1e-ENERGY        2e-ENERGY     RMS[dD(SAO)]   TOL
   4  -420.50532309249    -1356.5689778     545.30379480    0.316D-02 0.414D-13
                            Exc = -57.2949259817     Coul =  602.598720778    
                              N = 64.000009268    
                            current damping = 0.600
 
          Norm of current diis error: 0.59706    
          max. resid. norm for Fia-block=  3.387D-02 for orbital     10a         
          max. resid. fock norm         =  6.057D-02 for orbital    602a         

 ITERATION  ENERGY          1e-ENERGY        2e-ENERGY     RMS[dD(SAO)]   TOL
   5  -420.51420879020    -1357.2354195     545.96135085    0.149D-02 0.414D-13
                            Exc = -57.4045616672     Coul =  603.365912516    
                              N = 64.000008454    
                            current damping = 0.650
 
          Norm of current diis error: 0.30630    
          max. resid. norm for Fia-block=  8.855D-03 for orbital     29a         
          max. resid. fock norm         =  1.814D-02 for orbital    602a         
          mo-orthogonalization: Cholesky decomposition

 ITERATION  ENERGY          1e-ENERGY        2e-ENERGY     RMS[dD(SAO)]   TOL
   6  -420.51689239882    -1357.3148683     546.03811598    0.101D-02 0.414D-13
                            Exc = -57.3914975978     Coul =  603.429613577    
                              N = 64.000006949    
                            current damping = 0.500
 
          Norm of current diis error: 0.10823    
          max. resid. norm for Fia-block=  4.240D-03 for orbital     29a         
          max. resid. fock norm         =  6.283D-03 for orbital    629a         

 ITERATION  ENERGY          1e-ENERGY        2e-ENERGY     RMS[dD(SAO)]   TOL
   7  -420.51723044356    -1357.1630959     545.88600553    0.651D-03 0.414D-13
                            Exc = -57.3818100822     Coul =  603.267815616    
                              N = 64.000006289    
                            current damping = 0.550
 
          Norm of current diis error: 0.64472E-01
          max. resid. norm for Fia-block=  2.065D-03 for orbital     10a         
          max. resid. fock norm         =  5.070D-03 for orbital    602a         

 ITERATION  ENERGY          1e-ENERGY        2e-ENERGY     RMS[dD(SAO)]   TOL
   8  -420.51734060643    -1357.2346309     545.95743045    0.894D-04 0.414D-13
                            Exc = -57.3890223362     Coul =  603.346452787    
                              N = 64.000006150    
                            current damping = 0.600
 
          Norm of current diis error: 0.13214E-01
          max. resid. norm for Fia-block=  6.179D-04 for orbital     10a         
          max. resid. fock norm         =  1.718D-03 for orbital    626a         

 ITERATION  ENERGY          1e-ENERGY        2e-ENERGY     RMS[dD(SAO)]   TOL
   9  -420.51734556732    -1357.2683895     545.99118407    0.309D-04 0.414D-13
                            Exc = -57.3917821355     Coul =  603.382966208    
                              N = 64.000006106    
                            current damping = 0.450
 
          Norm of current diis error: 0.56699E-02
          max. resid. norm for Fia-block=  3.015D-04 for orbital     31a         
          max. resid. fock norm         =  3.356D-04 for orbital    642a         

 ITERATION  ENERGY          1e-ENERGY        2e-ENERGY     RMS[dD(SAO)]   TOL
  10  -420.51734628135    -1357.2570774     545.97987123    0.415D-04 0.414D-13
                            Exc = -57.3902912974     Coul =  603.370162523    
                              N = 64.000006044    
                            current damping = 0.500
 
          Norm of current diis error: 0.45070E-02
          max. resid. norm for Fia-block=  1.479D-04 for orbital     10a         
          max. resid. fock norm         =  2.681D-04 for orbital    629a         
          mo-orthogonalization: Cholesky decomposition

 ITERATION  ENERGY          1e-ENERGY        2e-ENERGY     RMS[dD(SAO)]   TOL
  11  -420.51734671347    -1357.2557367     545.97853005    0.455D-05 0.414D-13
                            Exc = -57.3908201717     Coul =  603.369350218    
                              N = 64.000006040    
                            current damping = 0.350
 
          Norm of current diis error: 0.22233E-02
          max. resid. norm for Fia-block=  7.172D-05 for orbital     29a         
          max. resid. fock norm         =  1.590D-04 for orbital    625a         

 ITERATION  ENERGY          1e-ENERGY        2e-ENERGY     RMS[dD(SAO)]   TOL
  12  -420.51734679861    -1357.2591852     545.98197847    0.216D-05 0.414D-13
                            Exc = -57.3910222823     Coul =  603.373000748    
                              N = 64.000006035    
                            current damping = 0.400
 
          Norm of current diis error: 0.13371E-02
          max. resid. norm for Fia-block=  3.511D-05 for orbital     26a         
          max. resid. fock norm         =  6.029D-05 for orbital    642a         

 ITERATION  ENERGY          1e-ENERGY        2e-ENERGY     RMS[dD(SAO)]   TOL
  13  -420.51734684192    -1357.2597581     545.98255140    0.175D-05 0.414D-13
                            Exc = -57.3909935569     Coul =  603.373544959    
                              N = 64.000006035    
                            current damping = 0.250
 
          Norm of current diis error: 0.44371E-03
          max. resid. norm for Fia-block=  1.120D-05 for orbital     26a         
          max. resid. fock norm         =  1.900D-05 for orbital    642a         

 ITERATION  ENERGY          1e-ENERGY        2e-ENERGY     RMS[dD(SAO)]   TOL
  14  -420.51734684635    -1357.2592115     545.98200480    0.576D-06 0.414D-13
                            Exc = -57.3909721364     Coul =  603.372976939    
                              N = 64.000006033    
                            current damping = 0.300
 
          Norm of current diis error: 0.12818E-03
          max. resid. norm for Fia-block=  3.851D-06 for orbital     19a         
          max. resid. fock norm         =  8.523D-06 for orbital    642a         

 DENSITY CONVERGED !


 ITERATION  ENERGY          1e-ENERGY        2e-ENERGY     RMS[dD(SAO)]   TOL
  15  -420.51734684663    -1357.2591010     545.98189426    0.727D-07 0.414D-13
                            Exc = -57.3909701941     Coul =  603.372864457    
                              N = 64.000006033    
                            current damping = 0.150
 
          Norm of current diis error: 0.61235E-04
          max. resid. norm for Fia-block=  1.286D-06 for orbital     28a         
          max. resid. fock norm         =  2.741D-06 for orbital    642a         
          mo-orthogonalization: Cholesky decomposition

 DENSITY CONVERGED !


 ITERATION  ENERGY          1e-ENERGY        2e-ENERGY     RMS[dD(SAO)]   TOL
  16  -420.51734684670    -1357.2591966     545.98198987    0.370D-07 0.414D-13
                            Exc = -57.3909722213     Coul =  603.372962093    
                              N = 64.000006033    
                            current damping = 0.200
 
          Norm of current diis error: 0.23613E-04
          max. resid. norm for Fia-block=  5.808D-07 for orbital     29a         
          max. resid. fock norm         =  1.034D-06 for orbital    642a         

 ENERGY & DENSITY CONVERGED !


 ITERATION  ENERGY          1e-ENERGY        2e-ENERGY     RMS[dD(SAO)]   TOL
  17  -420.51722125734    -1357.2591865     545.98210537    0.129D-07 0.414D-13
                            Exc = -57.3908485934     Coul =  603.372953960    
                              N = 64.000002418    
                            current damping = 0.250
 
          Norm of current diis error: 0.10665E-04
          max. resid. norm for Fia-block=  2.334D-07 for orbital     31a         
          max. resid. fock norm         =  2.808D-07 for orbital     31a         

 End of SCF iterations

   convergence criteria satisfied after   17 iterations


                  ------------------------------------------ 
                 |  total energy      =   -420.51722125734  |
                  ------------------------------------------ 
                 :  kinetic energy    =    418.77264321899  :
                 :  potential energy  =   -839.28986447633  :
                 :  virial theorem    =      1.99585135174  :
                 :  wavefunction norm =      1.00000000000  :
                  .......................................... 


 <geterg> : there is no data group $energy 


 <skperg> : $end is missing 


 orbitals $scfmo  will be written to file mos

    irrep                 28a         29a         30a         31a         32a   
 eigenvalues H         -0.09459    -0.08171    -0.02852    -0.01616    -0.00623
            eV          -2.5740     -2.2235     -0.7761     -0.4397     -0.1695
 occupation              2.0000      2.0000      2.0000      2.0000      2.0000 

    irrep                 33a         34a         35a         36a         37a   
 eigenvalues H          0.09329     0.10151     0.12921     0.15564     0.17312
            eV           2.5387      2.7622      3.5161      4.2351      4.7108
 
 
 ! grave: sending quit signal to master process
 
 
 
 
 ==============================================================================
                           electrostatic moments
 ==============================================================================

 reference point for electrostatic moments:    0.00000   0.00000   0.00000

 
              nuc           elec       ->  total
 ------------------------------------------------------------------------------
                          charge      
 ------------------------------------------------------------------------------
          63.000000     -64.000000      -1.000000
 
 ------------------------------------------------------------------------------
                       dipole moment  
 ------------------------------------------------------------------------------
   x       0.000000      -0.000000      -0.000000
   y       0.000000       0.000000       0.000000
   z      70.779165     -75.210414      -4.431249
 
   | dipole moment | =     4.4312 a.u. =    11.2631 debye 
 
 ------------------------------------------------------------------------------
                     quadrupole moment
 ------------------------------------------------------------------------------
  xx     263.968465    -308.956973     -44.988508
  yy       0.000000     -41.778406     -41.778406
  zz     851.098351    -922.137143     -71.038792
  xy       0.000000      -0.000000      -0.000000
  xz       0.000000      -0.000000      -0.000000
  yz       0.000000       0.000000       0.000000
 
     1/3  trace=     -52.601902
     anisotropy=      27.794714
 
 ==============================================================================
 

    ridft profiling
  --------------------------------------------------------------------
             module   cpu total (s)       %  wall total (s)       %

               RIDFT           219.9  100.00           220.5  100.00
         Ridft_b_scf             7.1    3.21             7.1    3.20
        b_scf_prelim             0.0    0.00             0.0    0.00
        b_scf_molinp             0.0    0.01             0.0    0.01
         b_scf_init0             0.0    0.00             0.0    0.00
        b_scf_auxbas             0.0    0.00             0.0    0.00
      b_scf_symmetry             0.0    0.00             0.0    0.00
         b_scf_cosmo             0.0    0.00             0.0    0.00
        b_scf_params             0.9    0.43             0.9    0.43
          b_scf_ri-j             5.5    2.49             5.5    2.49
    b_scf_ri-j_auxpq             5.5    2.49             5.5    2.49
     ri-j_auxpq_chol             0.0    0.01             0.0    0.01
         b_scf_1elec             0.2    0.09             0.2    0.09
       b_scf_moinput             0.4    0.19             0.4    0.19
     moinput_orthmos             0.4    0.17             0.4    0.17
    b_scf_dft-dstmax             0.0    0.00             0.0    0.00
           Ridft_scf           212.7   96.74           213.0   96.61
          Scf_b_loop             0.0    0.00             0.0    0.00
                noga             0.0    0.00             0.0    0.00
            Scf_loop           212.4   96.60           212.7   96.47
     scf_loop_mkdmat             0.4    0.17             0.4    0.17
       scf_loop_ri-j             8.4    3.80             8.4    3.80
      parlp1.bc.dens             0.9    0.41             0.9    0.41
        parlp1.gs.gp             0.0    0.00             0.0    0.00
        parlp2.bc.gq             0.0    0.00             0.0    0.00
        scf_loop_dft           192.7   87.63           192.9   87.52
      pardft.bc.dens             0.0    0.00             0.0    0.00
        dft_grid_con             0.2    0.08             0.2    0.08
          dft_xcmrhf           189.4   86.13           189.6   86.02
          dft_getval             6.1    2.76             6.1    2.78
          funct2 dst             0.1    0.03             0.1    0.03
      funct2 f2loop1             1.7    0.77             1.7    0.77
      funct2 f2loop2             2.0    0.91             2.0    0.91
          funct2 s+c             2.1    0.95             2.1    0.97
        funct2 cmf_2             1.8    0.81             1.8    0.83
          dft_mkdens            86.2   39.19            86.3   39.13
        dft_mgga-fun             0.5    0.21             0.5    0.24
          dft_mkfock            96.5   43.87            96.5   43.78
     pardft.red.fock            16.7    7.58            16.7    7.56
     scf_loop_energy             0.0    0.01             0.0    0.01
     scf_loop_mkfock             0.0    0.01             0.0    0.00
       scf_loop_diis             1.8    0.83             1.8    0.83
       scf_loop_diag             4.2    1.92             4.2    1.92
         diag_tritrn             1.0    0.43             0.9    0.43
          diag_rdiag             3.2    1.47             3.2    1.47
     scf_loop_modump             4.3    1.95             4.3    1.94
      scf_loop_ortho             0.5    0.21             0.5    0.21
          Scf_a_loop             0.3    0.14             0.3    0.14
         Ridft_a_scf             0.1    0.05             0.4    0.18
         a_scf_fanal             0.1    0.05             0.4    0.17
 


    ------------------------------------------------------------------------
         total  cpu-time :  3 minutes and 40 seconds
         total wall-time :  3 minutes and 41 seconds
    ------------------------------------------------------------------------


   ****  ridft : all done  ****


    2017-10-30 01:05:25.750 

