STARTING ridft ON 32 PROCESSORS!
RUNNING PROGRAM /sopt/TURBOMOLE/7.3-official/bin/em64t-unknown-linux-gnu_smp/ridft_mpi.
           SMPCPUS    set: Shared-memory Parallelization with  32 CPUs.

           SMP Parallelization Reference:
           C. van Wullen, J. Comput. Chem. 32 (2011) 1195--1201
 operating system is UNIX !

 ridft (c-15-41) : TURBOMOLE V7.3 ( 22118 ) 1 Jul 2018 at 20:38:15
 Copyright (C) 2018 TURBOMOLE GmbH, Karlsruhe


    2019-03-12 22:26:29.846 



                                  r i d f t

                        DFT program with RI approximation 
                                for coulomb part 




                                                 
                                 References:     
                                                 
          TURBOMOLE:                             
              R. Ahlrichs, M. Baer, M. Haeser, H. Horn, and
              C. Koelmel
              Electronic structure calculations on workstation
              computers: the program system TURBOMOLE
              Chem. Phys. Lett. 162: 165 (1989)
          Density Functional:                              
              O. Treutler and R. Ahlrichs                      
              Efficient Molecular Numerical Integration Schemes
              J. Chem. Phys. 102: 346 (1995)                   
          Parallel Version:                                
              Performance of parallel TURBOMOLE for Density    
              Functional Calculations                          
              M. v. Arnim and R. Ahlrichs                      
              J. Comp. Chem. 19: 1746 (1998)                   
          RI-J Method:                                     
              Auxiliary Basis Sets to approximate Coulomb      
              Potentials                                       
              Chem. Phys. Lett. 240: 283 (1995)                
              K. Eichkorn, O. Treutler, H. Oehm, M. Haeser     
              and R. Ahlrichs                                  
              Chem. Phys. Lett. 242: 652 (1995)                
                                                           
              Auxiliary Basis Sets for Main Row Atoms and their
              Use to approximate Coulomb Potentials            
              K. Eichkorn, F. Weigend, O. Treutler and         
              R. Ahlrichs                                      
              Theo. Chem. Acc. 97: 119 (1997)                   
                                                           
              Accurate Coulomb-fitting basis sets for H to Rn 
              F. Weigend                                        
              Phys. Chem. Chem. Phys. 8: 1057 (2006)            
                                                           
          Multipole accelerated RI-J (MARI-J):             
              Fast evaluation of the Coulomb potential for     
              electron densities using multipole accelerated   
              resolution of identity approximation             
              M. Sierka, A. Hogekamp and R. Ahlrichs           
              J. Chem. Phys. 118: 9136 (2003)                  
          RI-JK Method:                                     
              A fully direct RI-HF algorithm: Implementation,
              optimised auxiliary basis sets, demonstration of
              accuracy and efficiency                         
              F. Weigend                                      
              Phys. Chem. Chem. Phys. 4: 4285 (2002)           
          Two-component HF and DFT with spin-orbit coupling:  
              Self-consistent treatment of spin-orbit         
              interactions with efficient Hartree-Fock and    
              density functional methods                      
              M. K. Armbruster, F. Weigend, C. van Wüllen and 
              W. Klopper                                      
              Phys. Chem. Chem. Phys. 10: 1748 (2008)         
          Two-component difference density and DIIS algorithm 
              Efficient two-component self-consistent field   
              procedures and gradients: implementation in     
              TURBOMOLE and application to Au20-              
              A. Baldes, F. Weigend                           
              Mol. Phys. 111: 2617 (2013)                     
          Relativistic all-electron 2c calculations           
              An efficient implementation of two-component    
              relativistic exact-decoupling methods for large 
              molecules                                       
              D. Peng, N. Middendorf, F. Weigend, M. Reiher   
              J. Chem. Phys. 138: 184105 (2013)               
          Finite nucleus model and SNSO approximation         
              Efficient implementation of one- and two-       
              component analytical energy gradients in exact  
              two-component theory                            
              Y. J. Franzke, N. Middendorf, F. Weigend        
              J. Chem. Phys. 148: 104110 (2018)               
                                         




              +--------------------------------------------------+
              |      general information about current run       |
              +--------------------------------------------------+

 
 PBE functional
 exchange:    LDA + PBE
 correlation: LDA (PW) + PBE
 A DFT calculation using the RI-J approximation will be carried out.
 Allocatable memory for RI due to $ricore (MB):                  5000


              +--------------------------------------------------+
              | Atomic coordinate, charge and isotop information |
              +--------------------------------------------------+

                    atomic coordinates            atom    charge  isotop
         -1.15379604    0.42991855   -0.32239119    c      6.000     0
          0.20292835    1.62787817   -1.19848177    h      1.000     0
         -2.61968147   -0.99272133    0.71804590    c      6.000     0
         -3.93195928   -2.21866583    1.61454302    h      1.000     0
 
       center of nuclear mass  :   -1.88501818   -0.28248472    0.19861732
       center of nuclear charge:   -1.88356400   -0.28340031    0.19928497

              +--------------------------------------------------+
              |               basis set information              |
              +--------------------------------------------------+

              we will work with the 1s 3p 5d 7f 9g ... basis set
              ...i.e. with spherical basis functions...

   type   atoms  prim   cont   basis
   ---------------------------------------------------------------------------
    c        2     68     48   def2-QZVP   [7s4p3d2f|15s8p3d2f]
    h        2     26     23   def2-QZVP   [4s3p2d|7s3p2d]
   ---------------------------------------------------------------------------
   total:    4    188    142
   ---------------------------------------------------------------------------

   total number of primitive shells          :   40
   total number of contracted shells         :   50
   total number of cartesian basis functions :  164
   total number of SCF-basis functions       :  142


 integral neglect threshold       :  0.20E-10
 integral storage threshold THIZE :  0.10E-04
 integral storage threshold THIME :         5

 RI-J AUXILIARY BASIS SET information:

              we will work with the 1s 3p 5d 7f 9g ... basis set
              ...i.e. with spherical basis functions...

   type   atoms  prim   cont   basis
   ---------------------------------------------------------------------------
    c        2     70     49   def2-QZVP   [6s4p3d1f1g|12s5p4d2f1g]
    h        2     16     11   def2-QZVP   [3s1p1d|5s2p1d]
   ---------------------------------------------------------------------------
   total:    4    172    120
   ---------------------------------------------------------------------------

   total number of primitive shells          :   32
   total number of contracted shells         :   40
   total number of cartesian basis functions :  146
   total number of SCF-basis functions       :  120


 symmetry group of the molecule :   c1 

 the group has the following generators :
   c1(z)

    1 symmetry operations found

 there are 1 real representations :   a   

 maximum number of shells which are related by symmetry :  1


    mo occupation :
   irrep   mo's   occupied
    a      142        7
 
 number of basis functions   :                    142
 number of occupied orbitals :                      7
 
  
           ------------------
           density functional
           ------------------
 PBE functional
 exchange:    LDA + PBE
 correlation: LDA (PW) + PBE

 iterations will be done with small grid
  
 spherical integration : Lebedev's spherical grid
 spherical gridsize    :                     4
    i.e. gridpoints    :                   434
 value for diffuse not defined
 radial integration    : Chebyshev 2nd kind (scaling 3)
 radial gridsize       :                     6
 integration cells     :                     4
 partition function    : becke
 partition sharpness   :                     3
  

 biggest AO integral is expected to be     5.262544080
  
           ------------------------
               RI-J - INFORMATION
           ------------------------
 Contributions to RI integral batches: 
  neglected integral batches:                    31
  direct contribution:                            0
  memory contribution:                  1244
 Memory core needed for (P|Q) and Cholesky      1 MByte
 Memory core minimum needed except of (P|Q)     1 MByte
 Total minimum memory core needed (sum)         1 MByte
  
 ****************************************
 Memory allocated for RI-J    16 MByte
 ****************************************
                                            

          ------------------------
          nuclear repulsion energy  :   24.6257463838    
          ------------------------

  _________________________________
 |                                 |
 |         DFTD3 V3.1 Rev 0        |
 | S.Grimme, University Bonn       |
 |            June  2014           |
 |   see standalone version        |
 |       dftd3 -h for options      |
 |_________________________________|
 
 Please cite DFT-D3 work done with this code as:
 S. Grimme, J. Antony, S. Ehrlich and H. Krieg,
 J. Chem. Phys, 132 (2010), 154104.
 If used with BJ-damping cite also
 S. Grimme, S. Ehrlich and L. Goerigk,
 J. Comput. Chem. 32 (2011), 1456-1465
 For DFT-D2 the reference is
 S. Grimme, J. Comput. Chem., 27 (2006), 1787-1799
 
C6 coefficients used:
                     2  C6 for element                      1
Z=  1 CN= 0.912     C6(AA)=    3.03
Z=  1 CN= 0.000     C6(AA)=    7.59
                     5  C6 for element                      6
Z=  6 CN= 0.000     C6(AA)=   49.11
Z=  6 CN= 0.987     C6(AA)=   43.25
Z=  6 CN= 1.998     C6(AA)=   29.36
Z=  6 CN= 2.999     C6(AA)=   25.78
Z=  6 CN= 3.984     C6(AA)=   18.21

#           XYZ [au]              R0(AA) [Ang.]  CN          C6(AA)     C8(AA)   C10(AA) [au]
  1  -1.15380   0.42992  -0.32239   c   0.610  1.998        29.5       853.0     30221.6
  2   0.20293   1.62788  -1.19848   h   0.395  0.998         3.1        37.4       553.4
  3  -2.61968  -0.99272   0.71805   c   0.610  1.998        29.5       853.0     30221.3
  4  -3.93196  -2.21867   1.61454   h   0.395  0.998         3.1        37.4       553.4

molecular C6(AA) [au] =       206.68

           DFT-D V3(BJ)
 DF pbe                                               
 parameters
 s6       :    1.0000
 s8       :    0.7875
 a1       :    0.4289
 a2       :    4.4407
 k1-k3    :   16.0000    1.3333   -4.0000
 
 Edisp /kcal,au:    -0.8233 -0.00131195

 E6    /kcal :    -0.5809
 E8    /kcal :    -0.2424
 % E8        : 29.44
 nuclear repulsion energy                  =      24.625746384
 empirical dispersive energy correction    =      -0.001311946
 nuclear repulsion + dispersion correction =      24.624434438


         -----------------
         -S,T+V- integrals
         -----------------

 1e-integrals will be neglected if expon. factor < 0.203778E-11
 Difference densities >>NOT<< switched on in parallel ridft!

 DIIS switched on: error vector is FDS-SDF
 Max. Iterations for DIIS is     :   4
 DIIS matrix (see manual) 
    Scaling factor of diagonals  :  1.200
    threshold for scaling factor :  0.000

 scf convergence criterion : increment of total energy < .1000000D-06
                  and increment of one-electron energy < .1000000D-03

  MOs are in ASCII format !


 automatic virtual orbital shift switched on 
      shift if e(lumo)-e(homo) < 0.10000000    


 reading orbital data $scfmo  from file mos
 orbital characterization : expanded
 mo provided and orthogonalized by Cholesky decomposition

 DSCF restart information will be dumped onto file mos


 Starting SCF iterations

          Overall gridpoints after grid construction =         11051

 ITERATION  ENERGY          1e-ENERGY        2e-ENERGY     NORM[dD(SAO)]  TOL
   1  -76.935226419262    -148.43353842     46.873877558    0.000D+00 0.203D-10
                            Exc = -10.9703711044     Coul =  57.8442486629    
                              N = 13.999999629    
                            current damping = 0.700
 
          max. resid. norm for Fia-block=  4.712D-01 for orbital      3a         
          max. resid. fock norm         =  5.207D+01 for orbital    120a         

 ITERATION  ENERGY          1e-ENERGY        2e-ENERGY     NORM[dD(SAO)]  TOL
   2  -77.192181241992    -150.65410505     48.837489366    0.000D+00 0.203D-10
                            Exc = -11.2330273630     Coul =  60.0705167288    
                              N = 14.000001906    
                            current damping = 0.650
 
          Norm of current diis error:  1.6229    
          max. resid. norm for Fia-block=  1.398D-01 for orbital      2a         
          max. resid. fock norm         =  1.487D-01 for orbital     10a         

 ITERATION  ENERGY          1e-ENERGY        2e-ENERGY     NORM[dD(SAO)]  TOL
   3  -77.241729578712    -151.18490161     49.318737590    0.000D+00 0.203D-10
                            Exc = -11.3072065311     Coul =  60.6259441214    
                              N = 14.000002517    
                            current damping = 0.500
 
          Norm of current diis error: 0.74502    
          max. resid. norm for Fia-block=  5.613D-02 for orbital      2a         
          max. resid. fock norm         =  5.885D-02 for orbital      2a         

 ITERATION  ENERGY          1e-ENERGY        2e-ENERGY     NORM[dD(SAO)]  TOL
   4  -77.256259099894    -151.53116103     49.650467494    0.000D+00 0.203D-10
                            Exc = -11.3556710972     Coul =  61.0061385914    
                              N = 14.000003490    
                            current damping = 0.350
 
          Norm of current diis error: 0.26189    
          max. resid. norm for Fia-block=  1.921D-02 for orbital      2a         
          max. resid. fock norm         =  2.121D-02 for orbital      3a         

 ITERATION  ENERGY          1e-ENERGY        2e-ENERGY     NORM[dD(SAO)]  TOL
   5  -77.258577429923    -151.63033575     49.747323886    0.000D+00 0.203D-10
                            Exc = -11.3711673924     Coul =  61.1184912787    
                              N = 14.000004156    
                            current damping = 0.200
 
          Norm of current diis error: 0.73107E-01
          max. resid. norm for Fia-block=  5.304D-03 for orbital      3a         
          max. resid. fock norm         =  6.000D-03 for orbital      3a         
          mo-orthogonalization: Cholesky decomposition

 ITERATION  ENERGY          1e-ENERGY        2e-ENERGY     NORM[dD(SAO)]  TOL
   6  -77.258785388190    -151.67898685     49.795767022    0.000D+00 0.203D-10
                            Exc = -11.3779114311     Coul =  61.1736784528    
                              N = 14.000004410    
                            current damping = 0.050
 
          Norm of current diis error: 0.13656E-01
          max. resid. norm for Fia-block=  9.656D-04 for orbital      3a         
          max. resid. fock norm         =  1.523D-03 for orbital      2a         

 ITERATION  ENERGY          1e-ENERGY        2e-ENERGY     NORM[dD(SAO)]  TOL
   7  -77.258779489141    -151.66918481     49.785970881    0.000D+00 0.203D-10
                            Exc = -11.3771150023     Coul =  61.1630858829    
                              N = 14.000004466    
                            current damping = 0.100
 
          Norm of current diis error: 0.22858E-01
          max. resid. norm for Fia-block=  4.827D-04 for orbital      6a         
          max. resid. fock norm         =  9.979D-04 for orbital    141a         

 ITERATION  ENERGY          1e-ENERGY        2e-ENERGY     NORM[dD(SAO)]  TOL
   8  -77.258792059372    -151.67244845     49.789221957    0.000D+00 0.203D-10
                            Exc = -11.3774848936     Coul =  61.1667068506    
                              N = 14.000004468    
                            current damping = 0.150
 
          Norm of current diis error: 0.39084E-02
          max. resid. norm for Fia-block=  2.261D-04 for orbital      5a         
          max. resid. fock norm         =  3.165D-04 for orbital    116a         

 ITERATION  ENERGY          1e-ENERGY        2e-ENERGY     NORM[dD(SAO)]  TOL
   9  -77.258792392143    -151.67869707     49.795470244    0.000D+00 0.203D-10
                            Exc = -11.3781700784     Coul =  61.1736403221    
                              N = 14.000004467    
                            current damping = 0.050
 
          Norm of current diis error: 0.19002E-02
          max. resid. norm for Fia-block=  6.014D-05 for orbital      6a         
          max. resid. fock norm         =  8.493D-05 for orbital    141a         

 ITERATION  ENERGY          1e-ENERGY        2e-ENERGY     NORM[dD(SAO)]  TOL
  10  -77.258792479464    -151.67702417     49.793797251    0.000D+00 0.203D-10
                            Exc = -11.3779807870     Coul =  61.1717780376    
                              N = 14.000004467    
                            current damping = 0.100
 
          Norm of current diis error: 0.55095E-03
          max. resid. norm for Fia-block=  1.412D-05 for orbital      6a         
          max. resid. fock norm         =  2.946D-05 for orbital    141a         
          mo-orthogonalization: Cholesky decomposition

 ENERGY CONVERGED !

          Overall gridpoints after grid construction =         40378

 ITERATION  ENERGY          1e-ENERGY        2e-ENERGY     NORM[dD(SAO)]  TOL
  11  -77.258777821671    -151.67709961     49.793887349    0.000D+00 0.203D-10
                            Exc = -11.3779754280     Coul =  61.1718627769    
                              N = 13.999999450    
                            current damping = 0.150
 
          Norm of current diis error: 0.10746E-03
          max. resid. norm for Fia-block=  1.934D-06 for orbital      7a         
          max. resid. fock norm         =  3.988D-06 for orbital    141a         

 End of SCF iterations

   convergence criteria satisfied after    11 iterations


                  ------------------------------------------ 
                 |  total energy      =    -77.25877782167  |
                  ------------------------------------------ 
                 :  kinetic energy    =     76.89146213452  :
                 :  potential energy  =   -154.15023995619  :
                 :  virial theorem    =      1.99524564460  :
                 :  wavefunction norm =      1.00000000000  :
                  .......................................... 


 orbitals $scfmo  will be written to file mos

    irrep                  3a          4a          5a          6a          7a   
 eigenvalues H         -0.68193    -0.51772    -0.44819    -0.26297    -0.26294
            eV         -18.5563    -14.0879    -12.1961     -7.1558     -7.1551
 occupation              2.0000      2.0000      2.0000      2.0000      2.0000 

    irrep                  8a          9a         10a         11a         12a   
 eigenvalues H         -0.01564    -0.01534     0.02931     0.03913     0.09494
            eV          -0.4255     -0.4175      0.7974      1.0648      2.5834
 
 
 
 
 ==============================================================================
                           electrostatic moments
 ==============================================================================

 reference point for electrostatic moments:    0.00000   0.00000   0.00000

 
              nuc           elec       ->  total
 ------------------------------------------------------------------------------
                          charge      
 ------------------------------------------------------------------------------
          14.000000     -14.000000      -0.000000
 
 ------------------------------------------------------------------------------
                       dipole moment  
 ------------------------------------------------------------------------------
   x     -26.369896      26.379118       0.009222
   y      -3.967604       3.961285      -0.006320
   z       2.789990      -2.785381       0.004609
 
   | dipole moment | =     0.0121 a.u. =     0.0307 debye 
 
 ------------------------------------------------------------------------------
                     quadrupole moment
 ------------------------------------------------------------------------------
  xx      64.665342     -72.800558      -8.135216
  yy      14.594419     -22.988724      -8.394305
  zz       7.760264     -17.000946      -9.240683
  xy      21.681499     -19.714126       1.967372
  xz     -15.645991      14.207190      -1.438801
  yz     -10.641642       9.311219      -1.330424
 
     1/3  trace=      -8.590068
     anisotropy=       4.912734
 
 ==============================================================================
 


    ------------------------------------------------------------------------
         total  cpu-time :  11.57 seconds
         total wall-time :   2.88 seconds
    ------------------------------------------------------------------------

   ****  ridft : all done  ****


    2019-03-12 22:26:32.680 

