
   OpenMP run-time library returned nthreads = 16
 operating system is UNIX !

 dscf (c-3-41) : TURBOMOLE V7.3 ( 22142 ) 4 Jul 2018 at 18:12:42
 Copyright (C) 2018 TURBOMOLE GmbH, Karlsruhe


    2019-04-03 00:19:22.788 



                             d s c f - program

                   idea & directorship : reinhart ahlrichs
                   program development : marco haeser
                                         michael baer
                           dft version : oliver treutler


                          quantum chemistry group
                          universitaet  karlsruhe
                                  germany




                          References             
                                                 
          TURBOMOLE:                             
              R. Ahlrichs, M. Baer, M. Haeser, H. Horn, and
              C. Koelmel
              Electronic structure calculations on workstation
              computers: the program system TURBOMOLE
              Chem. Phys. Lett. 162: 165 (1989)
          Density Functional:                              
              O. Treutler and R. Ahlrichs                      
              Efficient Molecular Numerical Integration Schemes
              J. Chem. Phys. 102: 346 (1995)                   
          Parallel Version:                                
              Performance of parallel TURBOMOLE for Density    
              Functional Calculations                          
              M. v. Arnim and R. Ahlrichs                      
              J. Comp. Chem. 19: 1746 (1998)                   
                                         




              +--------------------------------------------------+
              | Atomic coordinate, charge and isotop information |
              +--------------------------------------------------+

                    atomic coordinates            atom    charge  isotop
          1.80824149   -1.68534400    2.15797277    c      6.000     0
          2.84321763   -2.41574581    0.53558654    h      1.000     0
          2.68602738   -2.48457022    3.83808188    h      1.000     0
          1.87262303    1.24440034    2.16468855    c      6.000     0
          2.85460982    1.93337212    0.49123031    h      1.000     0
          2.86531280    2.00276602    3.79936436    h      1.000     0
         -0.90603286    2.08308063    2.08602919    c      6.000     0
         -1.16457890    3.90205244    1.15947429    h      1.000     0
         -1.65302325    2.24701938    4.00257146    h      1.000     0
         -2.23385755   -0.09977103    0.74331575    c      6.000     0
         -1.79312741   -0.05070192   -1.27330615    h      1.000     0
         -4.28148546   -0.06342816    0.94727063    h      1.000     0
         -1.00280127   -2.40919208    1.96401050    c      6.000     0
         -1.30464918   -4.15176786    0.91272301    h      1.000     0
         -1.79684494   -2.67474099    3.84889559    h      1.000     0
         -2.13914195   -0.72550093    9.55439157    c      6.000     0
         -2.76867492   -0.27820537    7.64088444    h      1.000     0
         -3.65997162   -1.75180829   10.48600105    h      1.000     0
          0.34321449   -2.22886294    9.46413599    c      6.000     0
          0.43759675   -3.47181649    7.82738027    h      1.000     0
          0.49493610   -3.42195596   11.13538199    h      1.000     0
          2.47731098   -0.22063997    9.46526244    c      6.000     0
          3.65133160   -0.33530638    7.77986556    h      1.000     0
          3.71963487   -0.50387787   11.08174395    h      1.000     0
          1.13527780    2.35254105    9.66910122    c      6.000     0
          0.79538566    3.12447865    7.78693564    h      1.000     0
          2.23204453    3.74036254   10.71973843    h      1.000     0
         -1.40083381    1.72047974   10.89706767    c      6.000     0
         -2.79860482    3.21810994   10.69887074    h      1.000     0
         -1.13619669    1.35833253   12.91255311    h      1.000     0
 
       center of nuclear mass  :   -0.00233685    0.00211440    5.81659250
       center of nuclear charge:   -0.00066322    0.00137141    5.81658876

              +--------------------------------------------------+
              |               basis set information              |
              +--------------------------------------------------+

              we will work with the 1s 3p 5d 7f 9g ... basis set
              ...i.e. with spherical basis functions...

   type   atoms  prim   cont   basis
   ---------------------------------------------------------------------------
    c       10     77     57   def2-QZVP   [7s4p3d2f1g|15s8p3d2f1g]
    h       20     33     30   def2-QZVP   [4s3p2d1f|7s3p2d1f]
   ---------------------------------------------------------------------------
   total:   30   1430   1170
   ---------------------------------------------------------------------------

   total number of primitive shells          :   42
   total number of contracted shells         :  370
   total number of cartesian basis functions : 1420
   total number of SCF-basis functions       : 1170


 integral neglect threshold       :  0.23E-13
 integral storage threshold THIZE :  0.10E-04
 integral storage threshold THIME :         5


 DENSITY CONVERGENCE CHECK SWITCHED ON !
 SCF CONVERGENCE IF RMS(delta[D]) <     0.1000000000E-06


 symmetry group of the molecule :   c1 

 the group has the following generators :
   c1(z)

    1 symmetry operations found

 there are 1 real representations :   a   

 maximum number of shells which are related by symmetry :  1


    mo occupation :
   irrep   mo's   occupied
    a     1170       40
 
 number of basis functions   :                   1170
 number of occupied orbitals :                     40
 

 automatic virtual orbital shift switched on 
      shift if e(lumo)-e(homo) < 0.10000000    


          ------------------------
          nuclear repulsion energy  :   562.364946947    
          ------------------------


         -----------------
         -S,T+V- integrals
         -----------------

 1e-integrals will be neglected if expon. factor < 0.235349E-14
 
   Difference densities algorithm switched on.
   The maximal number of linear combinations of
   difference densities is                    20 .

 DIIS switched on: error vector is FDS-SDF
 Max. Iterations for DIIS is     :   5
 DIIS matrix (see manual) 
    Scaling factor of diagonals  :  1.200
    threshold for scaling factor :  0.000

 scf convergence criterion : increment of total energy < .1000000D-08
                  and increment of one-electron energy < .1000000D-05

  MOs are in ASCII format !


 reading orbital data $scfmo  from file mos
 orbital characterization : scfconv=9

 DSCF restart information will be dumped onto file mos

 
                                              current damping :  0.700
 ITERATION  ENERGY          1e-ENERGY        2e-ENERGY     RMS[dD(SAO)]   TOL
   1  -390.38361983326    -1643.3852319     690.63666509    0.000D+00 0.235D-13
          max. resid. norm for Fia-block=  1.985D-01 for orbital     10a         
          max. resid. fock norm         =  6.274D-01 for orbital   1160a         
          Delta Eig. =    46.9588660310 eV 
 
                                              current damping :  0.650
 ITERATION  ENERGY          1e-ENERGY        2e-ENERGY     RMS[dD(SAO)]   TOL
   2  -390.46139303825    -1642.0965317     689.27019174    0.414D-03 0.153D-13
          Norm of current diis error: 0.98436    
          max. resid. norm for Fia-block=  8.852D-02 for orbital     10a         
          max. resid. fock norm         =  2.527D-01 for orbital   1160a         
          Delta Eig. =    19.1556436529 eV 
 
                                              current damping :  0.600
 ITERATION  ENERGY          1e-ENERGY        2e-ENERGY     RMS[dD(SAO)]   TOL
   3  -390.47812108740    -1642.5389338     689.69586580    0.199D-03 0.114D-13
          Norm of current diis error: 0.43509    
          max. resid. norm for Fia-block=  3.601D-02 for orbital      8a         
          max. resid. fock norm         =  1.012D-01 for orbital   1160a         
          Delta Eig. =     8.1416475640 eV 
 
                                              current damping :  0.650
 ITERATION  ENERGY          1e-ENERGY        2e-ENERGY     RMS[dD(SAO)]   TOL
   4  -390.48162575811    -1642.3319291     689.48535641    0.820D-04 0.101D-13
          Norm of current diis error: 0.17237    
          max. resid. norm for Fia-block=  1.362D-02 for orbital      8a         
          max. resid. fock norm         =  3.777D-02 for orbital   1160a         
          Delta Eig. =     2.9040285241 eV 
 
                                              current damping :  0.700
 ITERATION  ENERGY          1e-ENERGY        2e-ENERGY     RMS[dD(SAO)]   TOL
   5  -390.48219583796    -1642.3353516     689.48820884    0.317D-04 0.931D-14
          Norm of current diis error: 0.73329E-01
          max. resid. norm for Fia-block=  5.353D-03 for orbital      8a         
          max. resid. fock norm         =  1.493D-02 for orbital   1160a         
 mo-orthogonalization: Cholesky decomposition
          Delta Eig. =     1.1211818944 eV 
 
                                              current damping :  0.750
 ITERATION  ENERGY          1e-ENERGY        2e-ENERGY     RMS[dD(SAO)]   TOL
   6  -390.48230214954    -1642.3247969     689.47754782    0.125D-04 0.868D-14
          Norm of current diis error: 0.32587E-01
          max. resid. norm for Fia-block=  2.190D-03 for orbital      8a         
          max. resid. fock norm         =  6.152D-03 for orbital   1160a         
          Delta Eig. =     0.4485821318 eV 
 
                                              current damping :  0.600
 ITERATION  ENERGY          1e-ENERGY        2e-ENERGY     RMS[dD(SAO)]   TOL
   7  -390.48232395116    -1642.3199053     689.47263442    0.523D-05 0.807D-14
          Norm of current diis error: 0.15100E-01
          max. resid. norm for Fia-block=  9.327D-04 for orbital      8a         
          max. resid. fock norm         =  2.631D-03 for orbital   1160a         
          Delta Eig. =     0.2092119111 eV 
 
                                              current damping :  0.450
 ITERATION  ENERGY          1e-ENERGY        2e-ENERGY     RMS[dD(SAO)]   TOL
   8  -390.48232919817    -1642.3179865     689.47071031    0.260D-05 0.740D-14
          Norm of current diis error: 0.62966E-02
          max. resid. norm for Fia-block=  3.471D-04 for orbital      8a         
          max. resid. fock norm         =  9.875D-04 for orbital   1160a         
          Delta Eig. =     0.0868804798 eV 
 
                                              current damping :  0.300
 ITERATION  ENERGY          1e-ENERGY        2e-ENERGY     RMS[dD(SAO)]   TOL
   9  -390.48233023974    -1642.3164261     689.46914887    0.119D-05 0.677D-14
          Norm of current diis error: 0.22640E-02
          max. resid. norm for Fia-block=  1.064D-04 for orbital      7a         
          max. resid. fock norm         =  3.054D-04 for orbital   1160a         
          Delta Eig. =     0.0297279297 eV 
 
                                              current damping :  0.150
 ITERATION  ENERGY          1e-ENERGY        2e-ENERGY     RMS[dD(SAO)]   TOL
  10  -390.48233039736    -1642.3160030     689.46872569    0.491D-06 0.629D-14
          Norm of current diis error: 0.67297E-03
          max. resid. norm for Fia-block=  2.889D-05 for orbital     34a         
          max. resid. fock norm         =  7.065D-05 for orbital   1160a         
 mo-orthogonalization: Cholesky decomposition
          Delta Eig. =     0.0077973156 eV 
 
                                              current damping :  0.050
 ITERATION  ENERGY          1e-ENERGY        2e-ENERGY     RMS[dD(SAO)]   TOL
  11  -390.48233041425    -1642.3157038     689.46842642    0.182D-06 0.595D-14
          Norm of current diis error: 0.15344E-03
          max. resid. norm for Fia-block=  7.343D-06 for orbital     36a         
          max. resid. fock norm         =  9.060D-06 for orbital   1158a         
          Delta Eig. =     0.0010349554 eV 

 DENSITY CONVERGED !

 
                                              current damping :  0.050
 ITERATION  ENERGY          1e-ENERGY        2e-ENERGY     RMS[dD(SAO)]   TOL
  12  -390.48233041538    -1642.3156753     689.46839798    0.585D-07 0.575D-14
          Norm of current diis error: 0.30195E-04
          max. resid. norm for Fia-block=  1.433D-06 for orbital     36a         
          max. resid. fock norm         =  1.443D-06 for orbital     36a         
          Delta Eig. =     0.0000682216 eV 

 DENSITY CONVERGED !

 
                                              current damping :  0.050
 ITERATION  ENERGY          1e-ENERGY        2e-ENERGY     RMS[dD(SAO)]   TOL
  13  -390.48233041539    -1642.3156294     689.46835206    0.158D-07 0.669D-14
          Norm of current diis error: 0.81277E-05
          max. resid. norm for Fia-block=  3.793D-07 for orbital     36a         
          max. resid. fock norm         =  4.178D-07 for orbital     34a         
          Delta Eig. =     0.0000211914 eV 

 DENSITY CONVERGED !

 
                                              current damping :  0.100
 ITERATION  ENERGY          1e-ENERGY        2e-ENERGY     RMS[dD(SAO)]   TOL
  14  -390.48233041537    -1642.3156451     689.46836773    0.375D-08 0.671D-14
          Norm of current diis error: 0.26150E-05
          max. resid. norm for Fia-block=  8.214D-08 for orbital     29a         
          max. resid. fock norm         =  9.917D-08 for orbital     29a         
          Delta Eig. =     0.0000058650 eV 

 ENERGY & DENSITY CONVERGED !

 
                                              current damping :  0.150
 ITERATION  ENERGY          1e-ENERGY        2e-ENERGY     RMS[dD(SAO)]   TOL
  15  -390.48233041536    -1642.3156379     689.46836055    0.858D-09 0.672D-14
          max. resid. norm for Fia-block=  1.792D-08 for orbital     35a         
          max. resid. fock norm         =  1.921D-08 for orbital     35a         

 convergence criteria satisfied after    15 iterations


                  ------------------------------------------ 
                 |  total energy      =   -390.48233041536  |
                  ------------------------------------------ 
                 :  kinetic energy    =    390.29526819699  :
                 :  potential energy  =   -780.77759861235  :
                 :  virial theorem    =      1.99952094575  :
                 :  wavefunction norm =      1.00000000000  :
                  .......................................... 


 orbitals $scfmo  will be written to file mos

    irrep                 36a         37a         38a         39a         40a   
 eigenvalues H         -0.45982    -0.45954    -0.45338    -0.44983    -0.44846
            eV         -12.5126    -12.5047    -12.3371    -12.2405    -12.2033
 occupation              2.0000      2.0000      2.0000      2.0000      2.0000 

    irrep                 41a         42a         43a         44a         45a   
 eigenvalues H          0.10697     0.10942     0.11710     0.12135     0.13208
            eV           2.9108      2.9775      3.1865      3.3021      3.5941
 
 
 
 
 ==============================================================================
                           electrostatic moments
 ==============================================================================

 reference point for electrostatic moments:    0.00000   0.00000   0.00000

 
              nuc           elec       ->  total
 ------------------------------------------------------------------------------
                          charge      
 ------------------------------------------------------------------------------
          80.000000     -80.000000       0.000000
 
 ------------------------------------------------------------------------------
                       dipole moment  
 ------------------------------------------------------------------------------
   x      -0.053058       0.045052      -0.008006
   y       0.109713      -0.106150       0.003563
   z     465.327101    -465.327068       0.000033
 
   | dipole moment | =     0.0088 a.u. =     0.0223 debye 
 
 ------------------------------------------------------------------------------
                     quadrupole moment
 ------------------------------------------------------------------------------
  xx     291.676854    -342.401683     -50.724829
  yy     299.138854    -349.874928     -50.736074
  zz    4063.644138   -4112.515610     -48.871472
  xy       4.408562      -4.415261      -0.006699
  xz      37.250253     -37.370330      -0.120077
  yz      79.457905     -79.612493      -0.154588
 
     1/3  trace=     -50.110792
     anisotropy=       1.889704
 
 ==============================================================================
 


    ------------------------------------------------------------------------
         total  cpu-time :  8 hours 38 minutes and 21 seconds
         total wall-time : 33 minutes and  7 seconds
    ------------------------------------------------------------------------

   ****  dscf : all done  ****


    2019-04-03 00:52:29.738 

