 this is node-proc. number 0 running on node c-6-27.local
 the total number of node-proc. spawned is  33

 dscfserver (c-6-27.local) : TURBOMOLE V7.2 ( 21471 ) 7 Nov 2017 at 16:15:16
 Copyright (C) 2017 TURBOMOLE GmbH, Karlsruhe


    2018-02-20 18:48:04.325 

 
    0:03:41 ---- Start global counter...
    2:09:01 ---- ... finished.
 
    2:12:05 ---- Start global counter...
    4:13:32 ---- ... finished.
 
    4:16:37 ---- Start global counter...
    6:11:08 ---- ... finished.
 
    6:14:12 ---- Start global counter...
    7:58:21 ---- ... finished.
 
    8:01:24 ---- Start global counter...
    9:36:06 ---- ... finished.
 
    9:40:18 ---- Start global counter...
   11:02:47 ---- ... finished.
 
   11:05:55 ---- Start global counter...
   12:18:55 ---- ... finished.
 
   12:22:04 ---- Start global counter...
   13:24:15 ---- ... finished.
 
   13:27:22 ---- Start global counter...
   14:21:00 ---- ... finished.
 
   14:24:10 ---- Start global counter...
   15:10:04 ---- ... finished.
 
   15:14:14 ---- Start global counter...
   15:51:22 ---- ... finished.
 
   15:54:34 ---- Start global counter...
   16:26:41 ---- ... finished.
 
   16:29:57 ---- Start global counter...
   16:56:38 ---- ... finished.
 
   16:59:50 ---- Start global counter...
   17:25:19 ---- ... finished.
 
   17:28:37 ---- Start global counter...
   17:54:54 ---- ... finished.
 
   17:57:19 ---- ByeBye Tag received


 ! Total wall-clock time in seconds  :    64638.9
 ! Time (sec) spent in global counter:    61503.5
 ! So-called SERIAL wall-clock time  :     3135.4

  *** Regular termination of server ***
 total turnaround time of dscfserver 64640.62 sec
 cpu elapsed by dscfserver process   61553.34 sec 

   ***  dscf server : all done  ***


    2018-02-21 12:45:24.945 

