Using Slurm to start processes with PMI2
STARTING ridft ON 8 PROCESSORS!
RUNNING PROGRAM /beegfs/modfac/apps/TURBOMOLE/7.0_intel_GA/bin/em64t-unknown-linux-gnu_mpi/ridft_mpi.
PLEASE WAIT UNTIL ridft HAS FINISHED.
Look for the output in slave1.output.
  this is node-proc. number 1 running on node c-16-41.local
  the total number of node-proc. spawned is            8
  parallel platform: MPP, or cluster with fast interconnect

 ridft (c-16-41.local) : TURBOMOLE V7.0.2( ) 15 Jan 2016 at 17:47:42
 Copyright (C) 2016 TURBOMOLE GmbH, Karlsruhe


    2017-11-01 20:15:57.452 



                                  r i d f t

                        DFT program with RI approximation 
                                for coulomb part 




                                                 
                                 References:     
                                                 
          TURBOMOLE:                             
              R. Ahlrichs, M. Baer, M. Haeser, H. Horn, and
              C. Koelmel
              Electronic structure calculations on workstation
              computers: the program system TURBOMOLE
              Chem. Phys. Lett. 162: 165 (1989)
          Density Functional:                              
              O. Treutler and R. Ahlrichs                      
              Efficient Molecular Numerical Integration Schemes
              J. Chem. Phys. 102: 346 (1995)                   
          Parallel Version:                                
              Performance of parallel TURBOMOLE for Density    
              Functional Calculations                          
              M. v. Arnim and R. Ahlrichs                      
              J. Comp. Chem. 19: 1746 (1998)                   
          RI-J Method:                                     
              Auxiliary Basis Sets to approximate Coulomb      
              Potentials                                       
              Chem. Phys. Lett. 240: 283 (1995)                
              K. Eichkorn, O. Treutler, H. Oehm, M. Haeser     
              and R. Ahlrichs                                  
              Chem. Phys. Lett. 242: 652 (1995)                
                                                           
              Auxiliary Basis Sets for Main Row Atoms and their
              Use to approximate Coulomb Potentials            
              K. Eichkorn, F. Weigend, O. Treutler and         
              R. Ahlrichs                                      
              Theo. Chem. Acc. 97: 119 (1997)                   
                                                           
              Accurate Coulomb-fitting basis sets for H to Rn 
              F. Weigend                                        
              Phys. Chem. Chem. Phys. 8: 1057 (2006)            
                                                           
          Multipole accelerated RI-J (MARI-J):             
              Fast evaluation of the Coulomb potential for     
              electron densities using multipole accelerated   
              resolution of identity approximation             
              M. Sierka, A. Hogekamp and R. Ahlrichs           
              J. Chem. Phys. 118: 9136 (2003)                  
          RI-JK Method:                                     
              A fully direct RI-HF algorithm: Implementation,
              optimised auxiliary basis sets, demonstration of
              accuracy and efficiency                         
              F. Weigend                                      
              Phys. Chem. Chem. Phys. 4: 4285 (2002)           
          Two-component HF and DFT with spin-orbit coupling:  
              Self-consistent treatment of spin-orbit         
              interactions with efficient Hartree-Fock and    
              density functional methods                      
              M. K. Armbruster, F. Weigend, C. van Wüllen and 
              W. Klopper                                      
              Phys. Chem. Chem. Phys. 10: 1748 (2008)         
          Relativistic all-electron 2c calculations           
              An efficient implementation of two-component    
              relativistic exact-decoupling methods for large 
              molecules                                       
              D. Peng, N. Middendorf, F. Weigend, M. Reiher   
              J. Chem. Phys. 138, 184105 (2013)               
                                         


 


              +--------------------------------------------------+
              |      general information about current run       |
              +--------------------------------------------------+

 

 SCF run will be profiled !


 DENSITY CONVERGENCE CHECK SWITCHED ON !
 SCF CONVERGENCE IF RMS(delta[D]) <     0.1000000000E-06

 PBE functional
 exchange:    LDA + PBE
 correlation: LDA (PW) + PBE
 A DFT calculation using the RI-J approximation will be carried out.
 Allocatable memory for RI due to $ricore (MB):       10000


              +--------------------------------------------------+
              | Atomic coordinate, charge and isotop information |
              +--------------------------------------------------+

                    atomic coordinates            atom    charge  isotop
         -0.83289988   -1.81929962    1.18247017    c      6.000     0
          0.80273647    0.77302858   -2.23980047    c      6.000     0
         -1.60359898   -0.58686057   -1.32908521    c      6.000     0
          0.90736867    0.17172790    2.37867187    c      6.000     0
          2.52194993    1.08064048    0.12589492    c      6.000     0
         -3.48701235    1.35403568   -0.93342435    o      8.000     0
         -4.95687907    0.55278839   -0.18347234    h      1.000     0
         -0.24203144    1.73087859    3.10599931    h      1.000     0
          0.26772179    2.58656947   -3.07148845    h      1.000     0
          0.22640048   -3.56182646    0.79112028    h      1.000     0
         -2.31083534   -1.96189258   -2.71496469    h      1.000     0
          4.20293337   -0.11464811   -0.05968179    h      1.000     0
          1.74462297   -0.33473076   -3.71027763    h      1.000     0
          3.18003306    3.02443923    0.36872284    h      1.000     0
          2.04618211   -0.56906206    3.93751688    h      1.000     0
         -2.46669179   -2.32578815    2.35179866    h      1.000     0
 
       center of nuclear mass  :   -0.37752981    0.18702447   -0.14736574
       center of nuclear charge:   -0.32148553    0.15780070   -0.12381696

              +--------------------------------------------------+
              |               basis set information              |
              +--------------------------------------------------+

              we will work with the 1s 3p 5d 7f 9g ... basis set
              ...i.e. with spherical basis functions...

   type   atoms  prim   cont   basis
   ---------------------------------------------------------------------------
    c        5     77     55   cc-pVQZ   [5s4p3d2f1g|21s6p3d2f1g]
    o        1     77     55   cc-pVQZ   [5s4p3d2f1g|21s6p3d2f1g]
    h       10     32     30   cc-pVQZ   [4s3p2d1f|6s3p2d1f]
   ---------------------------------------------------------------------------
   total:   16    782    630
   ---------------------------------------------------------------------------

   total number of primitive shells          :   78
   total number of contracted shells         :  190
   total number of cartesian basis functions :  770
   total number of SCF-basis functions       :  630


 integral neglect threshold       :  0.43E-13
 integral storage threshold THIZE :  0.10E-04
 integral storage threshold THIME :         5

 RI-J AUXILIARY BASIS SET information:

              we will work with the 1s 3p 5d 7f 9g ... basis set
              ...i.e. with spherical basis functions...

   type   atoms  prim   cont   basis
   ---------------------------------------------------------------------------
    c        5     70     49   cc-pVQZ   [6s4p3d1f1g|12s5p4d2f1g]
    o        1     70     49   cc-pVQZ   [6s4p3d1f1g|12s5p4d2f1g]
    h       10     16     11   cc-pVQZ   [3s1p1d|5s2p1d]
   ---------------------------------------------------------------------------
   total:   16    580    404
   ---------------------------------------------------------------------------

   total number of primitive shells          :   56
   total number of contracted shells         :  140
   total number of cartesian basis functions :  486
   total number of SCF-basis functions       :  404


 symmetry group of the molecule :   c1 

 the group has the following generators :
   c1(z)

    1 symmetry operations found

 there are 1 real representations :   a   

 maximum number of shells which are related by symmetry :  1


    mo occupation :
   irrep   mo's   occupied
    a      630       24
 
 number of basis functions   :          630
 number of occupied orbitals :           24
 
  
           ------------------
           density functional
           ------------------
 PBE functional
 exchange:    LDA + PBE
 correlation: LDA (PW) + PBE
 grinp -> nfun, dfgga, dfhybrid 
           6 T F
 iterations will be done with small grid
  
 spherical integration : Lebedev's spherical grid
 spherical gridsize    :           5
    i.e. gridpoints    :         590
 value for diffuse not defined
 radial integration    : Chebyshev 2nd kind (scaling 3)
 radial gridsize       :           8
 integration cells     :          16
 partition function    : becke
 partition sharpness   :           3
  

 <rddim> : input of entry tasksize
           from data group '$pardft' failed !

               Default values taken

 <rddim> : input of entry memdiv
           from data group '$pardft' failed !

               Default values taken
  RIDFT: memory allocation for DFT gridpoints
  MEMORY is divided by 1 as DEFAULT
 Each node can hold at most  the            1 -th part
 of the gridpoints    

 biggest AO integral is expected to be     4.785886462
  
           ------------------------
               RI-J - INFORMATION
           ------------------------
 
 
 **************************************************
 *      MEMORY ALLOCATION FOR PARALLEL RI-DFT     *
 **************************************************
 
 
MEMORY FOR (MU NU/ ALPHA), SEQUENTIAL RUN               9999 MByte
 
            DIFFERENCE IN MEMORY NEED:       DIAG./SLAVE  
 
      TOTAL DIFFERENCE :                     18 MByte
 
      difference in xcore:                    2 MByte
      difference in fatmat:                   6 MByte
      getcor calls skipped by slaves:        11 MByte
 
 
           Integral memory available for diagonal.      9999 MByte
 
           Integral memory available for slave             0 MByte
 
         MEMORY FOR (MU NU/ ALPHA) ON DIAGONALIZER      9999 MByte
 
         MEMORY FOR (MU NU/ ALPHA) ON ONE SLAVE            0 MByte
 
         TOTAL MEMORY FOR (MU NU/ ALPHA),ALL NODES      9999 MByte
 
 Contributions to RI integral batches: 
  neglected integral batches:        1833
  direct contribution:                  0
  memory contribution:       16312
 Memory core needed for (P|Q) and Cholesky      2 MByte
 Memory core minimum needed except of (P|Q)     3 MByte
 Total minimum memory core needed (sum)         4 MByte
  
 ****************************************
 Memory allocated for RI-J 10003 MByte
 ****************************************
                                            

          ------------------------
          nuclear repulsion energy  :   256.673716430    
          ------------------------

 
          -----------------
          -S integrals
          -----------------

 1e-integrals will be neglected if expon. factor < 0.434021E-14
 
          -----------------
          -T+V integrals
          -----------------

 1e-integrals will be neglected if expon. factor < 0.434021E-14
 Difference densities >>NOT<< switched on in parallel ridft!

 automatic virtual orbital shift switched on 
      shift if e(lumo)-e(homo) < 0.10000000    


 DIIS switched on: error vector is FDS-SDF
 Max. Iterations for DIIS is     :   4
 DIIS matrix (see manual) 
    Scaling factor of diagonals  :  1.200
    threshold for scaling factor :  0.000

 scf convergence criterion : increment of total energy < .1000000D-08
                  and increment of one-electron energy < .1000000D-05


 <geterg> : there is no data group $energy 

  MOs are in ASCII format !


 reading orbital data $scfmo  from file mos . 

 orbital characterization : expanded
 
 mo provided and orthogonalized by Cholesky decomposition

 DSCF restart information will be dumped onto file mos


 Starting SCF iterations


 ITERATION  ENERGY          1e-ENERGY        2e-ENERGY     RMS[dD(SAO)]   TOL
   1  -270.61441150716    -868.48391013     341.19578219    0.000D+00 0.433D-13
                            Exc = -38.4166936741     Coul =  379.612475867    
                              N = 48.000059493    
                            current damping = 0.700
 
          max. resid. norm for Fia-block=  3.233D-01 for orbital      1a         
          max. resid. fock norm         =  1.019D+01 for orbital    594a         

 ITERATION  ENERGY          1e-ENERGY        2e-ENERGY     RMS[dD(SAO)]   TOL
   2  -271.35953203650    -873.63976174     345.60651328    0.390D-02 0.433D-13
                            Exc = -38.8055459608     Coul =  384.412059237    
                              N = 48.000049626    
                            current damping = 0.650
 
          Norm of current diis error:  2.6227    
          max. resid. norm for Fia-block=  1.387D-01 for orbital      1a         
          max. resid. fock norm         =  2.167D-01 for orbital    318a         

 ITERATION  ENERGY          1e-ENERGY        2e-ENERGY     RMS[dD(SAO)]   TOL
   3  -271.48717265932    -875.08206845     346.92117936    0.207D-02 0.433D-13
                            Exc = -39.0308663454     Coul =  385.952045705    
                              N = 48.000043379    
                            current damping = 0.550
 
          Norm of current diis error:  1.3068    
          max. resid. norm for Fia-block=  5.635D-02 for orbital      1a         
          max. resid. fock norm         =  5.977D-02 for orbital      1a         

 ITERATION  ENERGY          1e-ENERGY        2e-ENERGY     RMS[dD(SAO)]   TOL
   4  -271.52938601081    -875.54622098     347.34311854    0.137D-02 0.433D-13
                            Exc = -39.0638797597     Coul =  386.406998298    
                              N = 48.000043267    
                            current damping = 0.400
 
          Norm of current diis error: 0.48987    
          max. resid. norm for Fia-block=  2.694D-02 for orbital      7a         
          max. resid. fock norm         =  4.814D-02 for orbital    612a         

 ITERATION  ENERGY          1e-ENERGY        2e-ENERGY     RMS[dD(SAO)]   TOL
   5  -271.53553157368    -876.31963738     348.11038937    0.645D-03 0.433D-13
                            Exc = -39.1633370442     Coul =  387.273726418    
                              N = 48.000041788    
                            current damping = 0.300
 
          Norm of current diis error: 0.24983    
          max. resid. norm for Fia-block=  1.115D-02 for orbital     24a         
          max. resid. fock norm         =  1.172D-02 for orbital     24a         
          mo-orthogonalization: Cholesky decomposition

 ITERATION  ENERGY          1e-ENERGY        2e-ENERGY     RMS[dD(SAO)]   TOL
   6  -271.53715747330    -875.94744364     347.73656974    0.577D-03 0.433D-13
                            Exc = -39.1304231006     Coul =  386.866992838    
                              N = 48.000041229    
                            current damping = 0.350
 
          Norm of current diis error: 0.90620E-01
          max. resid. norm for Fia-block=  2.515D-03 for orbital      7a         
          max. resid. fock norm         =  4.604D-03 for orbital    606a         

 ITERATION  ENERGY          1e-ENERGY        2e-ENERGY     RMS[dD(SAO)]   TOL
   7  -271.53733246841    -876.16944867     347.95839977    0.423D-04 0.433D-13
                            Exc = -39.1479702621     Coul =  387.106370036    
                              N = 48.000041460    
                            current damping = 0.400
 
          Norm of current diis error: 0.24786E-01
          max. resid. norm for Fia-block=  6.776D-04 for orbital      7a         
          max. resid. fock norm         =  1.298D-03 for orbital    612a         

 ITERATION  ENERGY          1e-ENERGY        2e-ENERGY     RMS[dD(SAO)]   TOL
   8  -271.53734355089    -876.12632615     347.91526617    0.244D-04 0.433D-13
                            Exc = -39.1469402942     Coul =  387.062206468    
                              N = 48.000041263    
                            current damping = 0.450
 
          Norm of current diis error: 0.74324E-02
          max. resid. norm for Fia-block=  1.634D-04 for orbital     13a         
          max. resid. fock norm         =  1.854D-04 for orbital     14a         

 ITERATION  ENERGY          1e-ENERGY        2e-ENERGY     RMS[dD(SAO)]   TOL
   9  -271.53734477805    -876.13717633     347.92611512    0.804D-05 0.433D-13
                            Exc = -39.1475562299     Coul =  387.073671349    
                              N = 48.000041279    
                            current damping = 0.500
 
          Norm of current diis error: 0.12063E-02
          max. resid. norm for Fia-block=  6.051D-05 for orbital     24a         
          max. resid. fock norm         =  6.187D-05 for orbital     24a         

 ITERATION  ENERGY          1e-ENERGY        2e-ENERGY     RMS[dD(SAO)]   TOL
  10  -271.53734481083    -876.13649695     347.92543571    0.293D-05 0.433D-13
                            Exc = -39.1474448629     Coul =  387.072880572    
                              N = 48.000041280    
                            current damping = 0.550
 
          Norm of current diis error: 0.57100E-03
          max. resid. norm for Fia-block=  2.869D-05 for orbital      7a         
          max. resid. fock norm         =  4.714D-05 for orbital    606a         
          mo-orthogonalization: Cholesky decomposition

 ITERATION  ENERGY          1e-ENERGY        2e-ENERGY     RMS[dD(SAO)]   TOL
  11  -271.53734481711    -876.13788322     347.92682197    0.319D-06 0.433D-13
                            Exc = -39.1475734768     Coul =  387.074395448    
                              N = 48.000041280    
                            current damping = 0.600
 
          Norm of current diis error: 0.26938E-03
          max. resid. norm for Fia-block=  1.029D-05 for orbital     24a         
          max. resid. fock norm         =  1.105D-05 for orbital     24a         

 ITERATION  ENERGY          1e-ENERGY        2e-ENERGY     RMS[dD(SAO)]   TOL
  12  -271.53734481879    -876.13743841     347.92637717    0.467D-06 0.433D-13
                            Exc = -39.1475402959     Coul =  387.073917461    
                              N = 48.000041279    
                            current damping = 0.650
 
          Norm of current diis error: 0.50629E-04
          max. resid. norm for Fia-block=  1.749D-06 for orbital     15a         
          max. resid. fock norm         =  3.426D-06 for orbital    611a         

 DENSITY CONVERGED !


 ITERATION  ENERGY          1e-ENERGY        2e-ENERGY     RMS[dD(SAO)]   TOL
  13  -271.53734481885    -876.13747947     347.92641822    0.929D-07 0.433D-13
                            Exc = -39.1475432840     Coul =  387.073961501    
                              N = 48.000041279    
                            current damping = 0.700
 
          Norm of current diis error: 0.18102E-04
          max. resid. norm for Fia-block=  1.029D-06 for orbital     24a         
          max. resid. fock norm         =  1.066D-06 for orbital    324a         

 ENERGY & DENSITY CONVERGED !


 ITERATION  ENERGY          1e-ENERGY        2e-ENERGY     RMS[dD(SAO)]   TOL
  14  -271.53734557851    -876.13747599     347.92641399    0.488D-07 0.433D-13
                            Exc = -39.1475428320     Coul =  387.073956818    
                              N = 48.000011060    
                            current damping = 0.750
 
          Norm of current diis error: 0.97363E-05
          max. resid. norm for Fia-block=  4.761D-07 for orbital      7a         
          max. resid. fock norm         =  8.957D-07 for orbital    612a         

 End of SCF iterations

   convergence criteria satisfied after   14 iterations


                  ------------------------------------------ 
                 |  total energy      =   -271.53734557851  |
                  ------------------------------------------ 
                 :  kinetic energy    =    270.22178356241  :
                 :  potential energy  =   -541.75912914092  :
                 :  virial theorem    =      1.99515513414  :
                 :  wavefunction norm =      1.00000000000  :
                  .......................................... 


 <geterg> : there is no data group $energy 


 <skperg> : $end is missing 


 orbitals $scfmo  will be written to file mos

    irrep                 20a         21a         22a         23a         24a   
 eigenvalues H         -0.29696    -0.29516    -0.28207    -0.26849    -0.22433
            eV          -8.0809     -8.0318     -7.6755     -7.3060     -6.1043
 occupation              2.0000      2.0000      2.0000      2.0000      2.0000 

    irrep                 25a         26a         27a         28a         29a   
 eigenvalues H         -0.00356     0.02057     0.03046     0.04628     0.05179
            eV          -0.0969      0.5597      0.8288      1.2592      1.4093
 
 
 ! grave: sending quit signal to master process
 
 
 
 
 ==============================================================================
                           electrostatic moments
 ==============================================================================

 reference point for electrostatic moments:    0.00000   0.00000   0.00000

 
              nuc           elec       ->  total
 ------------------------------------------------------------------------------
                          charge      
 ------------------------------------------------------------------------------
          48.000000     -48.000000       0.000000
 
 ------------------------------------------------------------------------------
                       dipole moment  
 ------------------------------------------------------------------------------
   x     -15.431305      15.407811      -0.023495
   y       7.574434      -8.106300      -0.531867
   z      -5.943214       6.105538       0.162324
 
   | dipole moment | =     0.5566 a.u. =     1.4147 debye 
 
 ------------------------------------------------------------------------------
                     quadrupole moment
 ------------------------------------------------------------------------------
  xx     235.017683    -261.962142     -26.944459
  yy      88.894956    -118.434381     -29.539425
  zz     152.154795    -181.363197     -29.208402
  xy      12.361305     -10.690315       1.670990
  xz      39.477455     -40.758514      -1.281059
  yz     -30.967994      31.659003       0.691009
 
     1/3  trace=     -28.564095
     anisotropy=       4.551579
 
 ==============================================================================
 

    ridft profiling
  --------------------------------------------------------------------
             module   cpu total (s)       %  wall total (s)       %

               RIDFT            89.8  100.00            89.9  100.00
         Ridft_b_scf             5.7    6.35             5.7    6.36
        b_scf_prelim             0.0    0.00             0.0    0.00
        b_scf_molinp             0.0    0.02             0.0    0.02
         b_scf_init0             0.0    0.00             0.0    0.00
        b_scf_auxbas             0.0    0.01             0.0    0.01
      b_scf_symmetry             0.0    0.00             0.0    0.00
         b_scf_cosmo             0.0    0.00             0.0    0.00
        b_scf_params             0.7    0.75             0.7    0.75
          b_scf_ri-j             4.4    4.94             4.4    4.94
    b_scf_ri-j_auxpq             4.4    4.93             4.4    4.93
     ri-j_auxpq_chol             0.0    0.02             0.0    0.02
         b_scf_1elec             0.2    0.21             0.2    0.21
       b_scf_moinput             0.4    0.42             0.4    0.42
     moinput_orthmos             0.4    0.40             0.4    0.40
    b_scf_dft-dstmax             0.0    0.00             0.0    0.00
           Ridft_scf            84.0   93.54            84.1   93.51
          Scf_b_loop             0.0    0.00             0.0    0.00
                noga             0.0    0.00             0.0    0.00
            Scf_loop            83.7   93.20            83.8   93.17
     scf_loop_mkdmat             0.3    0.31             0.3    0.30
       scf_loop_ri-j             5.9    6.58             5.9    6.58
      parlp1.bc.dens             0.7    0.82             0.7    0.82
        parlp1.gs.gp             0.0    0.00             0.0    0.00
        parlp2.bc.gq             0.0    0.00             0.0    0.00
        scf_loop_dft            69.1   76.96            69.2   76.94
      pardft.bc.dens             0.0    0.00             0.0    0.00
        dft_grid_con             0.2    0.22             0.2    0.23
           dft_xcrhf            66.4   74.00            66.6   73.99
          dft_getval             5.3    5.88             5.3    5.94
          funct2 dst             0.1    0.07             0.0    0.05
      funct2 f2loop1             1.6    1.78             1.7    1.86
      funct2 f2loop2             1.5    1.72             1.6    1.73
          funct2 s+c             1.9    2.13             1.9    2.13
        funct2 cmf_2             1.7    1.84             1.7    1.85
          dft_mkdens            29.8   33.21            29.9   33.22
         dft_gga-fun             0.1    0.16             0.2    0.17
          dft_mkfock            31.0   34.55            31.0   34.49
     pardft.red.fock             7.8    8.74             7.9    8.73
     scf_loop_energy             0.0    0.02             0.0    0.01
     scf_loop_mkfock             0.0    0.01             0.0    0.01
       scf_loop_diis             1.5    1.62             1.5    1.62
       scf_loop_diag             3.3    3.63             3.3    3.63
         diag_tritrn             0.7    0.81             0.7    0.81
          diag_rdiag             2.5    2.80             2.5    2.79
     scf_loop_modump             3.3    3.64             3.3    3.64
      scf_loop_ortho             0.3    0.32             0.3    0.32
          Scf_a_loop             0.3    0.33             0.3    0.33
         Ridft_a_scf             0.1    0.11             0.1    0.13
         a_scf_fanal             0.1    0.10             0.1    0.11
 


    ------------------------------------------------------------------------
         total  cpu-time :  1 minutes and 30 seconds
         total wall-time :  1 minutes and 31 seconds
    ------------------------------------------------------------------------


   ****  ridft : all done  ****


    2017-11-01 20:17:28.009 

