
   OpenMP run-time library returned nthreads = 28
 operating system is UNIX !

 dscf (c-16-41) : TURBOMOLE V7.3 ( 22142 ) 4 Jul 2018 at 18:12:42
 Copyright (C) 2018 TURBOMOLE GmbH, Karlsruhe


    2019-04-01 21:36:35.511 



                             d s c f - program

                   idea & directorship : reinhart ahlrichs
                   program development : marco haeser
                                         michael baer
                           dft version : oliver treutler


                          quantum chemistry group
                          universitaet  karlsruhe
                                  germany




                          References             
                                                 
          TURBOMOLE:                             
              R. Ahlrichs, M. Baer, M. Haeser, H. Horn, and
              C. Koelmel
              Electronic structure calculations on workstation
              computers: the program system TURBOMOLE
              Chem. Phys. Lett. 162: 165 (1989)
          Density Functional:                              
              O. Treutler and R. Ahlrichs                      
              Efficient Molecular Numerical Integration Schemes
              J. Chem. Phys. 102: 346 (1995)                   
          Parallel Version:                                
              Performance of parallel TURBOMOLE for Density    
              Functional Calculations                          
              M. v. Arnim and R. Ahlrichs                      
              J. Comp. Chem. 19: 1746 (1998)                   
                                         




              +--------------------------------------------------+
              | Atomic coordinate, charge and isotop information |
              +--------------------------------------------------+

                    atomic coordinates            atom    charge  isotop
         -1.29912038   -0.21116617   -0.03708677    o      8.000     0
         -1.97688322    1.46631071    0.02401246    h      1.000     0
          0.51786531    0.04885066   -0.00660887    h      1.000     0
 
       center of nuclear mass  :   -1.23538012   -0.10276214   -0.03196297
       center of nuclear charge:   -1.18519809   -0.01741680   -0.02792905

              +--------------------------------------------------+
              |               basis set information              |
              +--------------------------------------------------+

              we will work with the 1s 3p 5d 7f 9g ... basis set
              ...i.e. with spherical basis functions...

   type   atoms  prim   cont   basis
   ---------------------------------------------------------------------------
    o        1     77     55   cc-pVQZ   [5s4p3d2f1g|21s6p3d2f1g]
    h        2     32     30   cc-pVQZ   [4s3p2d1f|6s3p2d1f]
   ---------------------------------------------------------------------------
   total:    3    141    115
   ---------------------------------------------------------------------------

   total number of primitive shells          :   45
   total number of contracted shells         :   35
   total number of cartesian basis functions :  140
   total number of SCF-basis functions       :  115


 integral neglect threshold       :  0.24E-12
 integral storage threshold THIZE :  0.10E-04
 integral storage threshold THIME :         5


 DENSITY CONVERGENCE CHECK SWITCHED ON !
 SCF CONVERGENCE IF RMS(delta[D]) <     0.1000000000E-06


 symmetry group of the molecule :   c1 

 the group has the following generators :
   c1(z)

    1 symmetry operations found

 there are 1 real representations :   a   

 maximum number of shells which are related by symmetry :  1


    mo occupation :
   irrep   mo's   occupied
    a      115        5
 
 number of basis functions   :                    115
 number of occupied orbitals :                      5
 

 automatic virtual orbital shift switched on 
      shift if e(lumo)-e(homo) < 0.10000000    


          ------------------------
          nuclear repulsion energy  :   9.12565573012    
          ------------------------


         -----------------
         -S,T+V- integrals
         -----------------

 1e-integrals will be neglected if expon. factor < 0.238712E-13
 
   Difference densities algorithm switched on.
   The maximal number of linear combinations of
   difference densities is                    20 .

 DIIS switched on: error vector is FDS-SDF
 Max. Iterations for DIIS is     :   5
 DIIS matrix (see manual) 
    Scaling factor of diagonals  :  1.200
    threshold for scaling factor :  0.000

 scf convergence criterion : increment of total energy < .1000000D-08
                  and increment of one-electron energy < .1000000D-05

  MOs are in ASCII format !


 reading orbital data $scfmo  from file mos
 orbital characterization : scfconv=9

 DSCF restart information will be dumped onto file mos

 
                                              current damping :  0.700
 ITERATION  ENERGY          1e-ENERGY        2e-ENERGY     RMS[dD(SAO)]   TOL
   1  -76.055101334152    -122.95327051     37.772513449    0.000D+00 0.238D-12
          max. resid. norm for Fia-block=  1.188D-01 for orbital      1a         
          max. resid. fock norm         =  2.566D-01 for orbital    115a         
          Delta Eig. =    29.9231013697 eV 
 
                                              current damping :  0.650
 ITERATION  ENERGY          1e-ENERGY        2e-ENERGY     RMS[dD(SAO)]   TOL
   2  -76.062456768749    -122.94658046     37.758467966    0.128D-02 0.151D-12
          Norm of current diis error: 0.24282    
          max. resid. norm for Fia-block=  5.515D-02 for orbital      1a         
          max. resid. fock norm         =  9.738D-02 for orbital    115a         
          Delta Eig. =    12.5915403652 eV 
 
                                              current damping :  0.600
 ITERATION  ENERGY          1e-ENERGY        2e-ENERGY     RMS[dD(SAO)]   TOL
   3  -76.063796605004    -122.96586186     37.776409524    0.621D-03 0.115D-12
          Norm of current diis error: 0.10012    
          max. resid. norm for Fia-block=  2.243D-02 for orbital      1a         
          max. resid. fock norm         =  3.839D-02 for orbital    115a         
          Delta Eig. =     5.1285041947 eV 
 
                                              current damping :  0.650
 ITERATION  ENERGY          1e-ENERGY        2e-ENERGY     RMS[dD(SAO)]   TOL
   4  -76.064024906675    -122.96415410     37.774473467    0.273D-03 0.979D-13
          Norm of current diis error: 0.37918E-01
          max. resid. norm for Fia-block=  8.582D-03 for orbital      1a         
          max. resid. fock norm         =  1.406D-02 for orbital    115a         
          Delta Eig. =     1.8614614779 eV 
 
                                              current damping :  0.700
 ITERATION  ENERGY          1e-ENERGY        2e-ENERGY     RMS[dD(SAO)]   TOL
   5  -76.064059014049    -122.96631190     37.776597156    0.108D-03 0.902D-13
          Norm of current diis error: 0.15644E-01
          max. resid. norm for Fia-block=  3.395D-03 for orbital      1a         
          max. resid. fock norm         =  5.594D-03 for orbital    115a         
 mo-orthogonalization: Cholesky decomposition
          Delta Eig. =     0.7117789566 eV 
 
                                              current damping :  0.550
 ITERATION  ENERGY          1e-ENERGY        2e-ENERGY     RMS[dD(SAO)]   TOL
   6  -76.064064926876    -122.96660678     37.776886119    0.448D-04 0.844D-13
          Norm of current diis error: 0.67456E-02
          max. resid. norm for Fia-block=  1.402D-03 for orbital      1a         
          max. resid. fock norm         =  2.303D-03 for orbital    115a         
          Delta Eig. =     0.3215872791 eV 
 
                                              current damping :  0.400
 ITERATION  ENERGY          1e-ENERGY        2e-ENERGY     RMS[dD(SAO)]   TOL
   7  -76.064066190286    -122.96681112     37.777089197    0.223D-04 0.783D-13
          Norm of current diis error: 0.26265E-02
          max. resid. norm for Fia-block=  4.993D-04 for orbital      1a         
          max. resid. fock norm         =  8.168D-04 for orbital    115a         
          Delta Eig. =     0.1263864458 eV 
 
                                              current damping :  0.250
 ITERATION  ENERGY          1e-ENERGY        2e-ENERGY     RMS[dD(SAO)]   TOL
   8  -76.064066423634    -122.96691745     37.777195301    0.101D-04 0.719D-13
          Norm of current diis error: 0.92494E-03
          max. resid. norm for Fia-block=  1.565D-04 for orbital      3a         
          max. resid. fock norm         =  2.351D-04 for orbital    115a         
          Delta Eig. =     0.0406636048 eV 
 
                                              current damping :  0.100
 ITERATION  ENERGY          1e-ENERGY        2e-ENERGY     RMS[dD(SAO)]   TOL
   9  -76.064066461781    -122.96694037     37.777218181    0.401D-05 0.661D-13
          Norm of current diis error: 0.30017E-03
          max. resid. norm for Fia-block=  5.317D-05 for orbital      3a         
          max. resid. fock norm         =  5.319D-05 for orbital      3a         
          Delta Eig. =     0.0092369256 eV 
 
                                              current damping :  0.050
 ITERATION  ENERGY          1e-ENERGY        2e-ENERGY     RMS[dD(SAO)]   TOL
  10  -76.064066467347    -122.96695307     37.777230877    0.137D-05 0.616D-13
          Norm of current diis error: 0.87211E-04
          max. resid. norm for Fia-block=  1.698D-05 for orbital      3a         
          max. resid. fock norm         =  1.699D-05 for orbital      3a         
 mo-orthogonalization: Cholesky decomposition
          Delta Eig. =     0.0009416513 eV 
 
                                              current damping :  0.100
 ITERATION  ENERGY          1e-ENERGY        2e-ENERGY     RMS[dD(SAO)]   TOL
  11  -76.064066467902    -122.96694911     37.777226913    0.345D-06 0.586D-13
          Norm of current diis error: 0.18871E-04
          max. resid. norm for Fia-block=  3.683D-06 for orbital      3a         
          max. resid. fock norm         =  3.685D-06 for orbital      3a         
          Delta Eig. =     0.0000595937 eV 

 DENSITY CONVERGED !

 
                                              current damping :  0.150
 ITERATION  ENERGY          1e-ENERGY        2e-ENERGY     RMS[dD(SAO)]   TOL
  12  -76.064066467930    -122.96695178     37.777229585    0.611D-07 0.679D-13
          Norm of current diis error: 0.39712E-05
          max. resid. norm for Fia-block=  9.114D-07 for orbital      3a         
          max. resid. fock norm         =  9.117D-07 for orbital      3a         
          Delta Eig. =     0.0000198846 eV 

 ENERGY & DENSITY CONVERGED !

 
                                              current damping :  0.200
 ITERATION  ENERGY          1e-ENERGY        2e-ENERGY     RMS[dD(SAO)]   TOL
  13  -76.064066467931    -122.96694979     37.777227592    0.129D-07 0.681D-13
          max. resid. norm for Fia-block=  1.418D-07 for orbital      5a         
          max. resid. fock norm         =  1.418D-07 for orbital      5a         

 convergence criteria satisfied after    13 iterations


                  ------------------------------------------ 
                 |  total energy      =    -76.06406646793  |
                  ------------------------------------------ 
                 :  kinetic energy    =     75.97922385810  :
                 :  potential energy  =   -152.04329032603  :
                 :  virial theorem    =      1.99888459014  :
                 :  wavefunction norm =      1.00000000000  :
                  .......................................... 


 orbitals $scfmo  will be written to file mos

    irrep                  1a          2a          3a          4a          5a   
 eigenvalues H        -20.56141    -1.34622    -0.70897    -0.58188    -0.50776
            eV        -559.5088    -36.6329    -19.2922    -15.8340    -13.8169
 occupation              2.0000      2.0000      2.0000      2.0000      2.0000 

    irrep                  6a          7a          8a          9a         10a   
 eigenvalues H          0.11632     0.17073     0.44641     0.46299     0.49998
            eV           3.1651      4.6458     12.1474     12.5987     13.6051
 
 
 
 
 ==============================================================================
                           electrostatic moments
 ==============================================================================

 reference point for electrostatic moments:    0.00000   0.00000   0.00000

 
              nuc           elec       ->  total
 ------------------------------------------------------------------------------
                          charge      
 ------------------------------------------------------------------------------
          10.000000     -10.000000      -0.000000
 
 ------------------------------------------------------------------------------
                       dipole moment  
 ------------------------------------------------------------------------------
   x     -11.851981      12.253060       0.401079
   y      -0.174168       0.861613       0.687445
   z      -0.279291       0.311749       0.032458
 
   | dipole moment | =     0.7966 a.u. =     2.0246 debye 
 
 ------------------------------------------------------------------------------
                     quadrupole moment
 ------------------------------------------------------------------------------
  xx      17.677962     -22.100271      -4.422309
  yy       2.509183      -6.747055      -4.237872
  zz       0.011624      -5.535419      -5.523795
  xy      -0.678785      -0.752893      -1.431678
  xz       0.334549      -0.386699      -0.052150
  yz       0.097539      -0.070473       0.027066
 
     1/3  trace=      -4.727992
     anisotropy=       2.758606
 
 ==============================================================================
 


    ------------------------------------------------------------------------
         total  cpu-time :  2 minutes and 12 seconds
         total wall-time :   8.52 seconds
    ------------------------------------------------------------------------

   ****  dscf : all done  ****


    2019-04-01 21:36:43.960 

