Using Slurm to start processes with PMI2
STARTING ridft ON 12 PROCESSORS!
RUNNING PROGRAM /beegfs/modfac/apps/TURBOMOLE/7.0_intel_GA/bin/em64t-unknown-linux-gnu_mpi/ridft_mpi.
PLEASE WAIT UNTIL ridft HAS FINISHED.
Look for the output in slave1.output.
  this is node-proc. number 1 running on node c-3-344.local
  the total number of node-proc. spawned is           12
  parallel platform: MPP, or cluster with fast interconnect

 ridft (c-3-344.local) : TURBOMOLE V7.0.2( ) 15 Jan 2016 at 17:47:42
 Copyright (C) 2016 TURBOMOLE GmbH, Karlsruhe


    2017-11-21 14:36:15.076 



                                  r i d f t

                        DFT program with RI approximation 
                                for coulomb part 




                                                 
                                 References:     
                                                 
          TURBOMOLE:                             
              R. Ahlrichs, M. Baer, M. Haeser, H. Horn, and
              C. Koelmel
              Electronic structure calculations on workstation
              computers: the program system TURBOMOLE
              Chem. Phys. Lett. 162: 165 (1989)
          Density Functional:                              
              O. Treutler and R. Ahlrichs                      
              Efficient Molecular Numerical Integration Schemes
              J. Chem. Phys. 102: 346 (1995)                   
          Parallel Version:                                
              Performance of parallel TURBOMOLE for Density    
              Functional Calculations                          
              M. v. Arnim and R. Ahlrichs                      
              J. Comp. Chem. 19: 1746 (1998)                   
          RI-J Method:                                     
              Auxiliary Basis Sets to approximate Coulomb      
              Potentials                                       
              Chem. Phys. Lett. 240: 283 (1995)                
              K. Eichkorn, O. Treutler, H. Oehm, M. Haeser     
              and R. Ahlrichs                                  
              Chem. Phys. Lett. 242: 652 (1995)                
                                                           
              Auxiliary Basis Sets for Main Row Atoms and their
              Use to approximate Coulomb Potentials            
              K. Eichkorn, F. Weigend, O. Treutler and         
              R. Ahlrichs                                      
              Theo. Chem. Acc. 97: 119 (1997)                   
                                                           
              Accurate Coulomb-fitting basis sets for H to Rn 
              F. Weigend                                        
              Phys. Chem. Chem. Phys. 8: 1057 (2006)            
                                                           
          Multipole accelerated RI-J (MARI-J):             
              Fast evaluation of the Coulomb potential for     
              electron densities using multipole accelerated   
              resolution of identity approximation             
              M. Sierka, A. Hogekamp and R. Ahlrichs           
              J. Chem. Phys. 118: 9136 (2003)                  
          RI-JK Method:                                     
              A fully direct RI-HF algorithm: Implementation,
              optimised auxiliary basis sets, demonstration of
              accuracy and efficiency                         
              F. Weigend                                      
              Phys. Chem. Chem. Phys. 4: 4285 (2002)           
          Two-component HF and DFT with spin-orbit coupling:  
              Self-consistent treatment of spin-orbit         
              interactions with efficient Hartree-Fock and    
              density functional methods                      
              M. K. Armbruster, F. Weigend, C. van Wüllen and 
              W. Klopper                                      
              Phys. Chem. Chem. Phys. 10: 1748 (2008)         
          Relativistic all-electron 2c calculations           
              An efficient implementation of two-component    
              relativistic exact-decoupling methods for large 
              molecules                                       
              D. Peng, N. Middendorf, F. Weigend, M. Reiher   
              J. Chem. Phys. 138, 184105 (2013)               
                                         


 


              +--------------------------------------------------+
              |      general information about current run       |
              +--------------------------------------------------+

 

 SCF run will be profiled !


 DENSITY CONVERGENCE CHECK SWITCHED ON !
 SCF CONVERGENCE IF RMS(delta[D]) <     0.1000000000E-06

 TPSS meta-GGA functional
 exchange:    LDA + TPSS
 correlation: LDA (PW) + TPSS
 A DFT calculation using the RI-J approximation will be carried out.
 Allocatable memory for RI due to $ricore (MB):       18000


              +--------------------------------------------------+
              | Atomic coordinate, charge and isotop information |
              +--------------------------------------------------+

                    atomic coordinates            atom    charge  isotop
         -1.00170129    2.31805571   15.84505276    n      7.000     0
          5.31260054    8.80247574  -12.26789569    n      7.000     0
         -5.74252517   -8.72741374   15.08786916    c      6.000     0
         -4.70351651  -10.31159045   15.90297894    h      1.000     0
         -7.75911269   -9.02351561   15.40229565    h      1.000     0
         -4.83412851   -6.21303683   16.10287351    c      6.000     0
         -2.50911660   -6.02458570   17.33950789    c      6.000     0
         -1.41258511   -7.71326969   17.74521999    h      1.000     0
         -1.59098968   -3.66999475   18.09590118    c      6.000     0
          0.20824256   -3.55691128   19.08011524    h      1.000     0
         -2.98868314   -1.48057959   17.62299555    c      6.000     0
         -5.36331131   -1.68293163   16.46955188    c      6.000     0
         -6.52010133   -0.01093774   16.17715671    h      1.000     0
         -6.27720278   -4.02715808   15.71622017    c      6.000     0
         -8.13399519   -4.15067540   14.84637519    h      1.000     0
         -1.91148343    1.09507496   18.24237661    c      6.000     0
         -3.31697045    2.36282002   19.06142616    h      1.000     0
         -0.30063392    0.97232014   19.52443429    h      1.000     0
          1.16576937    1.48095751   14.75656209    c      6.000     0
          2.24884660    0.12121890   15.83781087    h      1.000     0
          1.87912817    2.28831354   12.39291117    c      6.000     0
          3.59743878    1.52294874   11.58630487    h      1.000     0
          0.35672335    3.99004817   11.01374326    c      6.000     0
         -1.81730941    4.90346858   12.25761134    c      6.000     0
         -3.01516031    6.31867982   11.38873098    h      1.000     0
         -2.45234310    4.04966733   14.63320828    c      6.000     0
         -4.10882304    4.70865953   15.64068547    h      1.000     0
          0.97905751    4.71514027    8.41938944    c      6.000     0
          3.48019551    4.61072616    7.51685567    c      6.000     0
          5.01971819    4.13678801    8.78711448    h      1.000     0
          4.03574125    5.22839933    5.03444311    c      6.000     0
          5.99361279    5.22219551    4.42670163    h      1.000     0
          2.11863298    5.94397410    3.33390844    c      6.000     0
         -0.37523468    6.05787375    4.24465543    c      6.000     0
         -1.90801451    6.54103237    2.97409510    h      1.000     0
         -0.93247104    5.47330923    6.73447633    c      6.000     0
         -2.88889797    5.51223131    7.34635281    h      1.000     0
          2.70470807    6.55490059    0.67874189    c      6.000     0
          4.84118024    5.52430218   -0.51917879    c      6.000     0
          6.04707843    4.21250962    0.49193042    h      1.000     0
          5.39338444    6.08571887   -3.01523261    c      6.000     0
          7.01713589    5.19510865   -3.89469237    h      1.000     0
          3.81285694    7.68177811   -4.43742284    c      6.000     0
          1.67615842    8.72372231   -3.24108994    c      6.000     0
          0.46975975   10.04505874   -4.24467029    h      1.000     0
          1.14638868    8.18346480   -0.73487075    c      6.000     0
         -0.45949799    9.09388558    0.15672476    h      1.000     0
          4.35244875    8.17984595   -7.10282861    c      6.000     0
          6.81490818    7.99237540   -8.10778452    c      6.000     0
          8.42599045    7.63803371   -6.89494045    h      1.000     0
          7.24231209    8.29999251  -10.65682116    c      6.000     0
          9.10739620    8.16588729  -11.49142434    h      1.000     0
          2.93422847    9.10981974  -11.35539154    c      6.000     0
          1.48735408    9.53541993  -12.73973165    h      1.000     0
          2.42106266    8.82815465   -8.82460402    c      6.000     0
          0.48325162    9.04166319   -8.20138957    h      1.000     0
          1.01094286   -2.32119823  -15.83105176    n      7.000     0
         -5.33239582   -8.79516515   12.27764423    n      7.000     0
          5.72327903    8.73562219  -15.07805193    c      6.000     0
          4.68061693   10.31746071  -15.89302714    h      1.000     0
          7.73911852    9.03646443  -15.39254294    h      1.000     0
          4.82124996    6.21888502  -16.09294024    c      6.000     0
          2.49013572    6.02156372  -17.31673453    c      6.000     0
          1.38352354    7.70579594  -17.71349191    h      1.000     0
          1.57903022    3.66413182  -18.07223093    c      6.000     0
         -0.22491057    3.54436047  -19.04698368    h      1.000     0
          2.99002732    1.48048342  -17.61181574    c      6.000     0
          5.37047993    1.69214113  -16.47228438    c      6.000     0
          6.53764747    0.02550810  -16.19081488    h      1.000     0
          6.27757098    4.03953103  -15.71983843    c      6.000     0
          8.13934181    4.17038411  -14.86183333    h      1.000     0
          1.92101528   -1.09916963  -18.22869492    c      6.000     0
          3.33157682   -2.36376765  -19.04376436    h      1.000     0
          0.31151322   -0.98346404  -19.51308881    h      1.000     0
         -1.16832261   -1.49954893  -14.75441867    c      6.000     0
         -2.25999456   -0.15460202  -15.84543426    h      1.000     0
         -1.88414116   -2.30460192  -12.39072074    c      6.000     0
         -3.61326061   -1.55173837  -11.59527644    h      1.000     0
         -0.35342696   -3.98873205  -10.99915147    c      6.000     0
          1.83308349   -4.88799006  -12.23164008    c      6.000     0
          3.03858311   -6.29154180  -11.35458652    h      1.000     0
          2.47096517   -4.03639716  -14.60705718    c      6.000     0
          4.13697294   -4.68494521  -15.60552285    h      1.000     0
         -0.98115635   -4.71315813   -8.40592868    c      6.000     0
         -3.48623302   -4.62098571   -7.51256475    c      6.000     0
         -5.02374357   -4.15533682   -8.78824648    h      1.000     0
         -4.04832499   -5.24071468   -5.03214128    c      6.000     0
         -6.00827087   -5.24344541   -4.43099065    h      1.000     0
         -2.13412591   -5.94791940   -3.32484651    c      6.000     0
          0.36342967   -6.05125499   -4.22650350    c      6.000     0
          1.89248199   -6.52922443   -2.94944556    h      1.000     0
          0.92744757   -5.46253880   -6.71366004    c      6.000     0
          2.88636985   -5.49218066   -7.31804187    h      1.000     0
         -2.72492498   -6.56014302   -0.67121554    c      6.000     0
         -4.86578518   -5.53426471    0.52292871    c      6.000     0
         -6.07474915   -4.22758157   -0.49140044    h      1.000     0
         -5.41903852   -6.09456421    3.01912594    c      6.000     0
         -7.04672317   -5.20793516    3.89546387    h      1.000     0
         -3.83554995   -7.68456338    4.44494114    c      6.000     0
         -1.69655750   -8.72458344    3.25107918    c      6.000     0
         -0.48904186  -10.04362536    4.25628260    h      1.000     0
         -1.16565331   -8.18562892    0.74504856    c      6.000     0
          0.44208117   -9.09411628   -0.14519497    h      1.000     0
         -4.37447648   -8.17878446    7.11109455    c      6.000     0
         -6.83688801   -7.99375438    8.11654935    c      6.000     0
         -8.44921660   -7.64341664    6.90416363    h      1.000     0
         -7.26321216   -8.29832282   10.66619543    c      6.000     0
         -9.12842908   -8.16636904   11.50088249    h      1.000     0
         -2.95343092   -9.09843698   11.36524810    c      6.000     0
         -1.50532110   -9.51974041   12.74965163    h      1.000     0
         -2.44145026   -8.82025113    8.83391633    c      6.000     0
         -0.50321877   -9.03023917    8.21054563    h      1.000     0
 
       center of nuclear mass  :   -0.00489693    0.00008624    0.00525065
       center of nuclear charge:   -0.00488945    0.00007730    0.00524483

              +--------------------------------------------------+
              |               basis set information              |
              +--------------------------------------------------+

              we will work with the 1s 3p 5d 7f 9g ... basis set
              ...i.e. with spherical basis functions...

   type   atoms  prim   cont   basis
   ---------------------------------------------------------------------------
    n        4     77     55   cc-pVQZ   [5s4p3d2f1g|21s6p3d2f1g]
    c       60     77     55   cc-pVQZ   [5s4p3d2f1g|21s6p3d2f1g]
    h       48     32     30   cc-pVQZ   [4s3p2d1f|6s3p2d1f]
   ---------------------------------------------------------------------------
   total:  112   6464   4960
   ---------------------------------------------------------------------------

   total number of primitive shells          :   78
   total number of contracted shells         : 1440
   total number of cartesian basis functions : 6160
   total number of SCF-basis functions       : 4960


 integral neglect threshold       :  0.54E-14
 integral storage threshold THIZE :  0.10E-04
 integral storage threshold THIME :         5

 RI-J AUXILIARY BASIS SET information:

              we will work with the 1s 3p 5d 7f 9g ... basis set
              ...i.e. with spherical basis functions...

   type   atoms  prim   cont   basis
   ---------------------------------------------------------------------------
    n        4     70     49   cc-pVQZ   [6s4p3d1f1g|12s5p4d2f1g]
    c       60     70     49   cc-pVQZ   [6s4p3d1f1g|12s5p4d2f1g]
    h       48     16     11   cc-pVQZ   [3s1p1d|5s2p1d]
   ---------------------------------------------------------------------------
   total:  112   5248   3664
   ---------------------------------------------------------------------------

   total number of primitive shells          :   56
   total number of contracted shells         : 1200
   total number of cartesian basis functions : 4480
   total number of SCF-basis functions       : 3664


 symmetry group of the molecule :   c1 

 the group has the following generators :
   c1(z)

    1 symmetry operations found

 there are 1 real representations :   a   

 maximum number of shells which are related by symmetry :  1


    mo occupation :
   irrep   mo's   occupied
    a     4960      216
 
 number of basis functions   :         4960
 number of occupied orbitals :          216
 
  
           ------------------
           density functional
           ------------------
 TPSS meta-GGA functional
 exchange:    LDA + TPSS
 correlation: LDA (PW) + TPSS
 grinp -> nfun, dfgga, dfhybrid 
           5 F F
 iterations will be done with small grid
  
 spherical integration : Lebedev's spherical grid
 spherical gridsize    :           5
    i.e. gridpoints    :         590
 value for diffuse not defined
 radial integration    : Chebyshev 2nd kind (scaling 3)
 radial gridsize       :           8
 integration cells     :         112
 partition function    : becke
 partition sharpness   :           3
  

 <rddim> : input of entry tasksize
           from data group '$pardft' failed !

               Default values taken

 <rddim> : input of entry memdiv
           from data group '$pardft' failed !

               Default values taken
  RIDFT: memory allocation for DFT gridpoints
  MEMORY is divided by 1 as DEFAULT
 Each node can hold at most  the            1 -th part
 of the gridpoints    

 biggest AO integral is expected to be     4.161848376
  
           ------------------------
               RI-J - INFORMATION
           ------------------------
 
 
 **************************************************
 *      MEMORY ALLOCATION FOR PARALLEL RI-DFT     *
 **************************************************
 
 
MEMORY FOR (MU NU/ ALPHA), SEQUENTIAL RUN              17888 MByte
 
            DIFFERENCE IN MEMORY NEED:       DIAG./SLAVE  
 
      TOTAL DIFFERENCE :                   1111 MByte
 
      difference in xcore:                  113 MByte
      difference in fatmat:                 333 MByte
      getcor calls skipped by slaves:       666 MByte
 
 
           Integral memory available for diagonal.     17888 MByte
 
           Integral memory available for slave             0 MByte
 
         MEMORY FOR (MU NU/ ALPHA) ON DIAGONALIZER     17888 MByte
 
         MEMORY FOR (MU NU/ ALPHA) ON ONE SLAVE            0 MByte
 
         TOTAL MEMORY FOR (MU NU/ ALPHA),ALL NODES     17888 MByte
 
 Contributions to RI integral batches: 
  neglected integral batches:      777455
  direct contribution:             191777
  memory contribution:       68288
 Memory core needed for (P|Q) and Cholesky    103 MByte
 Memory core minimum needed except of (P|Q)    13 MByte
 Total minimum memory core needed (sum)       115 MByte
     number of direct tasks:         240
  
 ****************************************
 Memory allocated for RI-J 18002 MByte
 ****************************************
                                            

          ------------------------
          nuclear repulsion energy  :   7892.85370051    
          ------------------------

 
          -----------------
          -S integrals
          -----------------

 1e-integrals will be neglected if expon. factor < 0.542526E-15
 
          -----------------
          -T+V integrals
          -----------------

 1e-integrals will be neglected if expon. factor < 0.542526E-15
 Difference densities >>NOT<< switched on in parallel ridft!

 automatic virtual orbital shift switched on 
      shift if e(lumo)-e(homo) < 0.10000000    


 DIIS switched on: error vector is FDS-SDF
 Max. Iterations for DIIS is     :   4
 DIIS matrix (see manual) 
    Scaling factor of diagonals  :  1.200
    threshold for scaling factor :  0.000

 scf convergence criterion : increment of total energy < .1000000D-08
                  and increment of one-electron energy < .1000000D-05


 <geterg> : there is no data group $energy 

  MOs are in ASCII format !


 reading orbital data $scfmo  from file mos . 

 orbital characterization : expanded
 
 mo provided and orthogonalized by Cholesky decomposition

 DSCF restart information will be dumped onto file mos


 Starting SCF iterations


 ITERATION  ENERGY          1e-ENERGY        2e-ENERGY     RMS[dD(SAO)]   TOL
   1  -2526.2858663715    -18890.370815     8471.2312478    0.000D+00 0.541D-14
                            Exc = -360.715745201     Coul =  8831.94699305    
                              N = 432.00026674    
                            current damping = 0.700
 
          max. resid. norm for Fia-block=  3.142D-01 for orbital      2a         
          max. resid. fock norm         =  6.628D+00 for orbital   4297a         

 ITERATION  ENERGY          1e-ENERGY        2e-ENERGY     RMS[dD(SAO)]   TOL
   2  -2532.8153609725    -18969.902031     8544.2329698    0.376D-02 0.541D-14
                            Exc = -367.385668257     Coul =  8911.61863807    
                              N = 432.00019680    
                            current damping = 0.650
 
          Norm of current diis error:  9.3753    
          max. resid. norm for Fia-block=  1.335D-01 for orbital      4a         
          max. resid. fock norm         =  1.930D-01 for orbital   4880a         

 ITERATION  ENERGY          1e-ENERGY        2e-ENERGY     RMS[dD(SAO)]   TOL
   3  -2534.1651634104    -18988.508106     8561.4892418    0.124D-02 0.541D-14
                            Exc = -369.381023614     Coul =  8930.87026544    
                              N = 432.00015234    
                            current damping = 0.550
 
          Norm of current diis error:  4.4607    
          max. resid. norm for Fia-block=  5.662D-02 for orbital     78a         
          max. resid. fock norm         =  6.273D-02 for orbital     78a         

 ITERATION  ENERGY          1e-ENERGY        2e-ENERGY     RMS[dD(SAO)]   TOL
   4  -2534.5589185059    -19004.096426     8576.6838066    0.491D-03 0.541D-14
                            Exc = -370.689690225     Coul =  8947.37349686    
                              N = 432.00011463    
                            current damping = 0.450
 
          Norm of current diis error:  1.7018    
          max. resid. norm for Fia-block=  2.253D-02 for orbital     68a         
          max. resid. fock norm         =  3.018D-02 for orbital   4062a         

 ITERATION  ENERGY          1e-ENERGY        2e-ENERGY     RMS[dD(SAO)]   TOL
   5  -2534.6242797898    -19007.289954     8579.8119737    0.235D-03 0.541D-14
                            Exc = -371.117925711     Coul =  8950.92989944    
                              N = 432.00010114    
                            current damping = 0.350
 
          Norm of current diis error: 0.74261    
          max. resid. norm for Fia-block=  1.078D-02 for orbital     68a         
          max. resid. fock norm         =  1.806D-02 for orbital   4796a         
          mo-orthogonalization: Cholesky decomposition

 ITERATION  ENERGY          1e-ENERGY        2e-ENERGY     RMS[dD(SAO)]   TOL
   6  -2534.6304694181    -19010.814298     8583.3301279    0.105D-03 0.541D-14
                            Exc = -371.409519868     Coul =  8954.73964782    
                              N = 432.00009660    
                            current damping = 0.250
 
          Norm of current diis error: 0.60386    
          max. resid. norm for Fia-block=  5.400D-03 for orbital    197a         
          max. resid. fock norm         =  1.051D-02 for orbital   4068a         

 ITERATION  ENERGY          1e-ENERGY        2e-ENERGY     RMS[dD(SAO)]   TOL
   7  -2534.6377865009    -19011.016089     8583.5246015    0.407D-04 0.541D-14
                            Exc = -371.403757992     Coul =  8954.92835953    
                              N = 432.00009345    
                            current damping = 0.100
 
          Norm of current diis error: 0.17930    
          max. resid. norm for Fia-block=  2.074D-03 for orbital    201a         
          max. resid. fock norm         =  3.398D-03 for orbital     87a         
          irrep a   : virtual orbitals shifted by    0.00866

 ITERATION  ENERGY          1e-ENERGY        2e-ENERGY     RMS[dD(SAO)]   TOL
   8  -2534.6380292856    -19010.221698     8582.7299685    0.176D-04 0.541D-14
                            Exc = -371.397344820     Coul =  8954.12731329    
                              N = 432.00009550    
                            current damping = 0.150
 
          Norm of current diis error: 0.15314    
          max. resid. norm for Fia-block=  1.003D-03 for orbital    185a         
          max. resid. fock norm         =  2.119D-03 for orbital   4898a         
          irrep a   : virtual orbitals shifted by    0.00480

 ITERATION  ENERGY          1e-ENERGY        2e-ENERGY     RMS[dD(SAO)]   TOL
   9  -2534.6384812453    -19010.606581     8583.1143994    0.674D-05 0.541D-14
                            Exc = -371.406621067     Coul =  8954.52102044    
                              N = 432.00009420    
                            current damping = 0.200
 
          Norm of current diis error: 0.44937E-01
          max. resid. norm for Fia-block=  6.709D-04 for orbital    215a         
          max. resid. fock norm         =  1.437D-03 for orbital   4898a         
          irrep a   : virtual orbitals shifted by    0.00011

 ITERATION  ENERGY          1e-ENERGY        2e-ENERGY     RMS[dD(SAO)]   TOL
  10  -2534.6384940456    -19010.739044     8583.2468490    0.393D-05 0.541D-14
                            Exc = -371.410119451     Coul =  8954.65696847    
                              N = 432.00009424    
                            current damping = 0.050
 
          Norm of current diis error: 0.38410E-01
          max. resid. norm for Fia-block=  3.827D-04 for orbital    215a         
          max. resid. fock norm         =  8.327D-04 for orbital   4898a         
          irrep a   : virtual orbitals shifted by    0.01284
          mo-orthogonalization: Cholesky decomposition

 ITERATION  ENERGY          1e-ENERGY        2e-ENERGY     RMS[dD(SAO)]   TOL
  11  -2534.6385227032    -19010.654697     8583.1624733    0.214D-05 0.541D-14
                            Exc = -371.407122662     Coul =  8954.56959596    
                              N = 432.00009429    
                            current damping = 0.100
 
          Norm of current diis error: 0.15006E-01
          max. resid. norm for Fia-block=  1.215D-04 for orbital    192a         
          max. resid. fock norm         =  2.776D-04 for orbital   4912a         
          irrep a   : virtual orbitals shifted by    0.00865

 ITERATION  ENERGY          1e-ENERGY        2e-ENERGY     RMS[dD(SAO)]   TOL
  12  -2534.6385268586    -19010.666914     8583.1746866    0.715D-06 0.541D-14
                            Exc = -371.407503884     Coul =  8954.58219047    
                              N = 432.00009423    
                            current damping = 0.150
 
          Norm of current diis error: 0.51087E-02
          max. resid. norm for Fia-block=  4.824D-05 for orbital    209a         
          max. resid. fock norm         =  1.069D-04 for orbital   4948a         
          irrep a   : virtual orbitals shifted by    0.00451

 ITERATION  ENERGY          1e-ENERGY        2e-ENERGY     RMS[dD(SAO)]   TOL
  13  -2534.6385272934    -19010.667467     8583.1752395    0.271D-06 0.541D-14
                            Exc = -371.407833899     Coul =  8954.58307339    
                              N = 432.00009426    
                            current damping = 0.050
 
          Norm of current diis error: 0.23880E-02
          max. resid. norm for Fia-block=  2.617D-05 for orbital    209a         
          max. resid. fock norm         =  5.776D-05 for orbital   4948a         
          irrep a   : virtual orbitals shifted by    0.01280

 ITERATION  ENERGY          1e-ENERGY        2e-ENERGY     RMS[dD(SAO)]   TOL
  14  -2534.6385273633    -19010.666603     8583.1743753    0.167D-06 0.541D-14
                            Exc = -371.407543997     Coul =  8954.58191931    
                              N = 432.00009423    
                            current damping = 0.100
 
          Norm of current diis error: 0.17053E-02
          max. resid. norm for Fia-block=  1.201D-05 for orbital    197a         
          max. resid. fock norm         =  2.657D-05 for orbital   4069a         
          irrep a   : virtual orbitals shifted by    0.00866

 DENSITY CONVERGED !


 ITERATION  ENERGY          1e-ENERGY        2e-ENERGY     RMS[dD(SAO)]   TOL
  15  -2534.6385274212    -19010.666008     8583.1737803    0.751D-07 0.541D-14
                            Exc = -371.407629260     Coul =  8954.58140951    
                              N = 432.00009425    
                            current damping = 0.050
 
          Norm of current diis error: 0.53794E-03
          max. resid. norm for Fia-block=  5.367D-06 for orbital    202a         
          max. resid. fock norm         =  9.776D-06 for orbital   4926a         
          irrep a   : virtual orbitals shifted by    0.01280
          mo-orthogonalization: Cholesky decomposition

 DENSITY CONVERGED !


 ITERATION  ENERGY          1e-ENERGY        2e-ENERGY     RMS[dD(SAO)]   TOL
  16  -2534.6385274240    -19010.666862     8583.1746344    0.395D-07 0.541D-14
                            Exc = -371.407629816     Coul =  8954.58226425    
                              N = 432.00009424    
                            current damping = 0.100
 
          Norm of current diis error: 0.41215E-03
          max. resid. norm for Fia-block=  2.831D-06 for orbital    202a         
          max. resid. fock norm         =  5.319D-06 for orbital   4912a         
          irrep a   : virtual orbitals shifted by    0.00865

 DENSITY CONVERGED !


 ITERATION  ENERGY          1e-ENERGY        2e-ENERGY     RMS[dD(SAO)]   TOL
  17  -2534.6385274274    -19010.666615     8583.1743871    0.194D-07 0.541D-14
                            Exc = -371.407642623     Coul =  8954.58202969    
                              N = 432.00009424    
                            current damping = 0.150
 
          Norm of current diis error: 0.86350E-04
          max. resid. norm for Fia-block=  1.374D-06 for orbital    209a         
          max. resid. fock norm         =  2.748D-06 for orbital   4927a         
          irrep a   : virtual orbitals shifted by    0.00450

 DENSITY CONVERGED !


 ITERATION  ENERGY          1e-ENERGY        2e-ENERGY     RMS[dD(SAO)]   TOL
  18  -2534.6385274274    -19010.666508     8583.1742796    0.823D-08 0.541D-14
                            Exc = -371.407632712     Coul =  8954.58191235    
                              N = 432.00009424    
                            current damping = 0.050
 
          Norm of current diis error: 0.75364E-04
          max. resid. norm for Fia-block=  5.330D-07 for orbital    213a         
          max. resid. fock norm         =  1.162D-06 for orbital   4897a         
          irrep a   : virtual orbitals shifted by    0.01281

 ENERGY & DENSITY CONVERGED !


 ITERATION  ENERGY          1e-ENERGY        2e-ENERGY     RMS[dD(SAO)]   TOL
  19  -2534.6374701762    -19010.666539     8583.1753685    0.339D-08 0.541D-14
                            Exc = -371.406576616     Coul =  8954.58194507    
                              N = 432.00003758    
                            current damping = 0.100
 
          Norm of current diis error: 0.27295E-04
          max. resid. norm for Fia-block=  2.186D-07 for orbital    165a         
          max. resid. fock norm         =  4.730D-07 for orbital   4897a         

 End of SCF iterations

   convergence criteria satisfied after   19 iterations


                  ------------------------------------------ 
                 |  total energy      =  -2534.63747017622  |
                  ------------------------------------------ 
                 :  kinetic energy    =   2523.08027283810  :
                 :  potential energy  =  -5057.71774301432  :
                 :  virial theorem    =      1.99544029571  :
                 :  wavefunction norm =      1.00000000000  :
                  .......................................... 


 <geterg> : there is no data group $energy 


 <skperg> : $end is missing 


 orbitals $scfmo  will be written to file mos

    irrep                212a        213a        214a        215a        216a   
 eigenvalues H         -0.52414    -0.52158    -0.52149    -0.49689    -0.49648
            eV         -14.2627    -14.1931    -14.1905    -13.5212    -13.5101
 occupation              2.0000      2.0000      2.0000      2.0000      2.0000 

    irrep                217a        218a        219a        220a        221a   
 eigenvalues H         -0.41344    -0.41222    -0.39999    -0.39829    -0.36774
            eV         -11.2504    -11.2171    -10.8845    -10.8382    -10.0067
 
 
 ! grave: sending quit signal to master process
 
 
 
 
 ==============================================================================
                           electrostatic moments
 ==============================================================================

 reference point for electrostatic moments:    0.00000   0.00000   0.00000

 
              nuc           elec       ->  total
 ------------------------------------------------------------------------------
                          charge      
 ------------------------------------------------------------------------------
         436.000000    -432.000000       4.000000
 
 ------------------------------------------------------------------------------
                       dipole moment  
 ------------------------------------------------------------------------------
   x      -2.131798       2.112081      -0.019717
   y       0.033704      -0.033076       0.000628
   z       2.286747      -2.262360       0.024387
 
   | dipole moment | =     0.0314 a.u. =     0.0797 debye 
 
 ------------------------------------------------------------------------------
                     quadrupole moment
 ------------------------------------------------------------------------------
  xx    6423.332123   -6584.474434    -161.142311
  yy   16304.913378  -16388.716772     -83.803395
  zz   59159.924774  -58721.613669     438.311104
  xy    7393.610157   -7326.564335      67.045822
  xz  -11294.350153   11163.316540    -131.033613
  yz   -9221.009116    9102.619417    -118.389699
 
     1/3  trace=      64.455133
     anisotropy=     652.692761
 
 ==============================================================================
 

    ridft profiling
  --------------------------------------------------------------------
             module   cpu total (s)       %  wall total (s)       %

               RIDFT          8627.1  100.00          8721.8  100.00
         Ridft_b_scf           429.2    4.98           430.2    4.93
        b_scf_prelim             0.0    0.00             0.0    0.00
        b_scf_molinp             0.0    0.00             0.0    0.00
         b_scf_init0             0.0    0.00             0.0    0.00
        b_scf_auxbas             0.0    0.00             0.0    0.00
      b_scf_symmetry             0.0    0.00             0.0    0.00
         b_scf_cosmo             0.0    0.00             0.0    0.00
        b_scf_params            35.5    0.41            35.5    0.41
          b_scf_ri-j            97.1    1.13            97.1    1.11
    b_scf_ri-j_auxpq            97.0    1.12            97.0    1.11
     ri-j_auxpq_chol             7.4    0.09             7.4    0.08
         b_scf_1elec            12.4    0.14            13.3    0.15
       b_scf_moinput           284.2    3.29           284.2    3.26
     moinput_orthmos           282.9    3.28           282.8    3.24
    b_scf_dft-dstmax             0.0    0.00             0.0    0.00
           Ridft_scf          8193.8   94.98          8287.3   95.02
          Scf_b_loop             0.0    0.00             0.0    0.00
                noga             0.0    0.00             0.0    0.00
            Scf_loop          8176.8   94.78          8266.5   94.78
     scf_loop_mkdmat            61.0    0.71            61.8    0.71
       scf_loop_ri-j          1134.8   13.15          1134.8   13.01
      parlp1.bc.dens             4.7    0.05             4.7    0.05
        parlp1.gs.gp            20.3    0.23            20.3    0.23
        parlp2.bc.gq             0.0    0.00             0.0    0.00
        scf_loop_dft          3990.4   46.25          3999.1   45.85
      pardft.bc.dens             0.0    0.00             0.0    0.00
        dft_grid_con             4.8    0.06             4.8    0.06
          dft_xcmrhf          3820.8   44.29          3823.0   43.83
          dft_getval            52.5    0.61            52.5    0.60
          funct2 dst             1.0    0.01             1.0    0.01
      funct2 f2loop1            10.8    0.13            10.9    0.12
      funct2 f2loop2            21.3    0.25            21.3    0.24
          funct2 s+c            18.3    0.21            18.4    0.21
        funct2 cmf_2            16.6    0.19            16.7    0.19
          dft_mkdens          1864.3   21.61          1865.4   21.39
        dft_mgga-fun             1.6    0.02             1.7    0.02
          dft_mkfock          1901.5   22.04          1902.4   21.81
     pardft.red.fock           454.2    5.26           461.8    5.30
     scf_loop_energy             0.5    0.01             0.7    0.01
     scf_loop_mkfock             0.9    0.01             0.9    0.01
       scf_loop_diis          1788.2   20.73          1795.0   20.58
       scf_loop_diag           661.0    7.66           661.6    7.59
         diag_tritrn           231.0    2.68           231.2    2.65
          diag_rdiag           427.7    4.96           428.1    4.91
     scf_loop_modump           282.5    3.27           355.0    4.07
      scf_loop_ortho           245.9    2.85           246.0    2.82
          Scf_a_loop            17.1    0.20            20.8    0.24
         Ridft_a_scf             4.0    0.05             4.3    0.05
         a_scf_fanal             3.9    0.05             4.0    0.05
 


    ------------------------------------------------------------------------
         total  cpu-time :  2 hours 24 minutes and  9 seconds
         total wall-time :  2 hours 25 minutes and 44 seconds
    ------------------------------------------------------------------------


   ****  ridft : all done  ****


    2017-11-21 17:01:58.736 

