 this is node-proc. number 0 running on node c-16-33.local
 the total number of node-proc. spawned is  17

 dscfserver (c-16-33.local) : TURBOMOLE V7.2 ( 21471 ) 7 Nov 2017 at 16:15:16
 Copyright (C) 2017 TURBOMOLE GmbH, Karlsruhe


    2018-02-14 09:48:37.166 

 
    0:00:01 ---- Start global counter...
    0:00:30 ---- ... finished.
 
    0:00:32 ---- Start global counter...
    0:00:56 ---- ... finished.
 
    0:00:58 ---- Start global counter...
    0:01:19 ---- ... finished.
 
    0:01:21 ---- Start global counter...
    0:01:39 ---- ... finished.
 
    0:01:41 ---- Start global counter...
    0:01:58 ---- ... finished.
 
    0:02:00 ---- Start global counter...
    0:02:16 ---- ... finished.
 
    0:02:18 ---- ByeBye Tag received


 ! Total wall-clock time in seconds  :      138.4
 ! Time (sec) spent in global counter:      126.2
 ! So-called SERIAL wall-clock time  :       12.2

  *** Regular termination of server ***
 total turnaround time of dscfserver   138.69 sec
 cpu elapsed by dscfserver process     125.20 sec 

   ***  dscf server : all done  ***


    2018-02-14 09:50:55.853 

