
   OpenMP run-time library returned nthreads =  8

 ricc2 (c-16-19.local) : TURBOMOLE V7.2 ( 21471 ) 11 Oct 2017 at 17:04:51
 Copyright (C) 2017 TURBOMOLE GmbH, Karlsruhe


    2018-04-03 13:44:41.488 



                              R I C C 2 - PROGRAM

                          the quantum chemistry groups
                             at the universities in
                           Karlsruhe, Bochum & Mainz
                                   Germany



   *-----------------------------------------------------------------------*
   |                     program will use  8 thread(s)                     |
   *-----------------------------------------------------------------------*


              +--------------------------------------------------+
              | Atomic coordinate, charge and isotop information |
              +--------------------------------------------------+

                    atomic coordinates            atom    charge  isotop
          3.02763569   -1.59057603    0.00000000    c      6.000     0
          0.62406949   -0.23598822    0.00000000    c      6.000     0
          5.32594031   -0.18785232    0.00000000    c      6.000     0
         -4.00921843   -0.13182007    0.00000000    c      6.000     0
         -3.97410338    2.58751026    0.00000000    c      6.000     0
          0.64863889    2.48969979    0.00000000    c      6.000     0
         -1.62590082    3.82028132    0.00000000    c      6.000     0
         -1.70664810   -1.45852311    0.00000000    c      6.000     0
          7.65765433   -1.48043538    0.00000000    c      6.000     0
          3.18430492   -4.24966069    0.00000000    c      6.000     0
         -6.38462552   -1.39349885    0.00000000    c      6.000     0
         -6.31278701    3.91651317    0.00000000    c      6.000     0
          3.02427555    3.80200590    0.00000000    c      6.000     0
          5.25145372    2.52749350    0.00000000    c      6.000     0
          5.49397006   -5.48253152    0.00000000    c      6.000     0
          7.75350334   -4.09250152    0.00000000    c      6.000     0
         -8.56942589    2.63385644    0.00000000    c      6.000     0
         -8.60585824   -0.04971059    0.00000000    c      6.000     0
         -1.79610964   -3.50894179    0.00000000    h      1.000     0
          1.46803341   -5.37162752    0.00000000    h      1.000     0
         -1.57526843    5.87645894    0.00000000    h      1.000     0
          2.99300983    5.85645889    0.00000000    h      1.000     0
          7.03740446    3.54363653    0.00000000    h      1.000     0
          9.39175429   -0.37758671    0.00000000    h      1.000     0
         -6.40792492   -3.44838374    0.00000000    h      1.000     0
         -6.27823905    5.97100559    0.00000000    h      1.000     0
          5.55170731   -7.53448712    0.00000000    h      1.000     0
        -10.40643217   -1.03559812    0.00000000    h      1.000     0
        -10.34271436    3.66811995    0.00000000    h      1.000     0
          9.56190035   -5.06331696    0.00000000    h      1.000     0
 
       center of nuclear mass  :    0.03869629    0.06864504    0.00000000
       center of nuclear charge:    0.03345329    0.05934425    0.00000000

              +--------------------------------------------------+
              |               basis set information              |
              +--------------------------------------------------+

              we will work with the 1s 3p 5d 7f 9g ... basis set
              ...i.e. with spherical basis functions...

   type   atoms  prim   cont   basis
   ---------------------------------------------------------------------------
    c       18     77     55   cc-pVQZ   [5s4p3d2f1g|21s6p3d2f1g]
    h       12     32     30   cc-pVQZ   [4s3p2d1f|6s3p2d1f]
   ---------------------------------------------------------------------------
   total:   30   1770   1350
   ---------------------------------------------------------------------------

   total number of primitive shells          :   45
   total number of contracted shells         :  390
   total number of cartesian basis functions : 1680
   total number of SCF-basis functions       : 1350


 symmetry group of the molecule :   c1 

 the group has the following generators :
   c1(z)

    1 symmetry operations found

 there are 1 real representations :   a   


   =========================================================================


     restricted closed shell calculation for the wavefunction models:
               MP2        - Second Order Moeller Plesset PT


     global parameters for ricc2 program:

        hard restart (reuse of interm.) :  disabled
        soft restart (reuse of vectors) :  disabled
        threshold for vector function   :    0.100000E-05
        convergence threshold energy    :    0.100000E-06
        linear dependence threshold     :    0.100000E-13
        global print level              :      1
        maximum number of iterations    :   300
        maximum number DIIS vectors     :    10
        max. dim. of reduced space      :   100
        core memory limit (MB)          : 15258


     MP2 energy only: Energy will be calculated directly from T2 amplitudes!

     Scratch Directory : 


   =========================================================================

    der. integral neglect threshold  :  0.10E-07
    integral neglect threshold       :  0.20E-11
    integral storage threshold THIZE :  0.10E-04
    integral storage threshold THIME :         5


                  +------------------------------------------+
                  |     Auxiliary basis set information      |
                  +------------------------------------------+

              we will work with the 1s 3p 5d 7f 9g ... basis set
              ...i.e. with spherical basis functions...

   type   atoms  prim   cont   basis
   ---------------------------------------------------------------------------
    c       18    132    132   cc-pVQZ   [8s7p6d5f3g1h|8s7p6d5f3g1h]
    h       12     55     55   cc-pVQZ   [5s4p3d2f1g|5s4p3d2f1g]
   ---------------------------------------------------------------------------
   total:   30   3036   3036
   ---------------------------------------------------------------------------

   total number of primitive shells          :   45
   total number of contracted shells         :  720
   total number of cartesian basis functions : 4098
   total number of SCF-basis functions       : 3036


 maximum number of shells which are related by symmetry :  1


 The symmetry information takes   1 MB

*---------------------------------------------------------------------*
|               simplified C1 algorithm will be applied               |
*---------------------------------------------------------------------*
  MOs are in ASCII format !


 reading orbital data $scfmo  from file mos
 orbital characterization : scfconv=9



              +--------------------------------------------+
              | list of orbitals that will be kept frozen: |
              +--------------------------------------------+
              |   irrep   index      energy     occ/vir    |
              +--------------------------------------------+
              |   a         1      -11.2508     occupied   |
              |   a         2      -11.2493     occupied   |
              |   a         3      -11.2473     occupied   |
              |   a         4      -11.2463     occupied   |
              |   a         5      -11.2460     occupied   |
              |   a         6      -11.2452     occupied   |
              |   a         7      -11.2390     occupied   |
              |   a         8      -11.2390     occupied   |
              |   a         9      -11.2387     occupied   |
              |   a        10      -11.2387     occupied   |
              |   a        11      -11.2385     occupied   |
              |   a        12      -11.2381     occupied   |
              |   a        13      -11.2377     occupied   |
              |   a        14      -11.2376     occupied   |
              |   a        15      -11.2375     occupied   |
              |   a        16      -11.2368     occupied   |
              |   a        17      -11.2368     occupied   |
              |   a        18      -11.2360     occupied   |
              +--------------------------------------------+



   Molecular Orbital Statistic:
   ============================

   -----------------------------
   orbitals in total:
   -----------------------------
    frozen occupied :     18
    active occupied :     42
    active virtual  :   1290
    frozen virtual  :      0
    all together    :   1350
   -----------------------------


     time in riccmos       cpu:  8.11 sec    wall:  2.63 sec    ratio:  3.1

     total memory allocated for calculation of (Q|P)**(-1/2) : 106 MiB


     calculation of (P|Q) ...
     time in lp2sym        cpu:  2.48 sec    wall:  0.31 sec    ratio:  8.0


     calculation of the Cholesky decomposition of (P|Q)**(-1) ...
     time in invmetri      cpu: 11.23 sec    wall:  1.67 sec    ratio:  6.7

   threshold for RMS(d[D]) in SCF was     :  0.10E-06
   integral neglect threshold             :  0.20E-11
   derivative integral neglect threshold  :  0.10E-07


   =========================================================================

     Energy of reference wave function is  -688.9044622123999
     Maximum orbital residual is           0.8713113693667E-06


     Number of symmetry-nonredundant auxiliary basis functions:     3036

     Block lengths for integral files:
        frozen occupied (BOI):        1 MiB
        active occupied (BJI):        1 MiB
        active virtual  (BAI):       30 MiB
        frozen virtual  (BGI):        0 MiB
               general  (BTI):       32 MiB

   =========================================================================




   **************************************************************************
   *                                                                        *
   *          OPTIMIZATION OF THE GROUND STATE CLUSTER AMPLITUDES           *
   *                                                                        *
   **************************************************************************


   Iter.   MP2 energy       Norm(Omega)    Norm(t1)  Norm(t2)     cpu    wall
   ...........................................................................
    1   -691.8894312171     ------          0.00000   0.59811   15.77    2.10
   ...........................................................................


     time in total         cpu: 15 min 46 s  wall:  2 min  6 s  ratio:  7.5


     **********************************************************************
     *                                                                    *
     *   RHF  energy                             :   -688.9044622124      *
     *   MP2 correlation energy (doubles)        :     -2.9849690047      *
     *                                                                    *
     *   Final MP2 energy                        :   -691.8894312171      *
     *                                                                    *
     *    E(S)   =     -1.8425735322      E(T)   =     -1.1423954725      *
     *    E(OS)  =     -2.2233720230      E(SS)  =     -0.7615969817      *
     *                                                                    *
     *   SCS-MP2 energy                          :   -691.8263743006      *
     *   (computed with  C(OS) =   1.2000  and  C(SS) =   0.3333)         *
     *                                                                    *
     *   SOS-MP2 energy                          :   -691.7948458423      *
     *   (computed with  C(OS) =   1.3000)                                *
     *                                                                    *
     *   Norm of MP1 T2 amplitudes               :      0.5981142448      *
     *                                                                    *
     **********************************************************************



    ------------------------------------------------------------------------
         total  cpu-time : 22 minutes and 14 seconds
         total wall-time :  3 minutes and  1 seconds
    ------------------------------------------------------------------------

   ****  ricc2 : all done  ****


    2018-04-03 13:47:42.820 

