Using Slurm to start processes with PMI2
STARTING ridft ON 8 PROCESSORS!
RUNNING PROGRAM /beegfs/modfac/apps/TURBOMOLE/7.0_intel_GA/bin/em64t-unknown-linux-gnu_mpi/ridft_mpi.
PLEASE WAIT UNTIL ridft HAS FINISHED.
Look for the output in slave1.output.
  this is node-proc. number 1 running on node c-7-19.local
  the total number of node-proc. spawned is            8
  parallel platform: MPP, or cluster with fast interconnect

 ridft (c-7-19.local) : TURBOMOLE V7.0.2( ) 15 Jan 2016 at 17:47:42
 Copyright (C) 2016 TURBOMOLE GmbH, Karlsruhe


    2018-02-01 18:23:24.074 



                                  r i d f t

                        DFT program with RI approximation 
                                for coulomb part 




                                                 
                                 References:     
                                                 
          TURBOMOLE:                             
              R. Ahlrichs, M. Baer, M. Haeser, H. Horn, and
              C. Koelmel
              Electronic structure calculations on workstation
              computers: the program system TURBOMOLE
              Chem. Phys. Lett. 162: 165 (1989)
          Density Functional:                              
              O. Treutler and R. Ahlrichs                      
              Efficient Molecular Numerical Integration Schemes
              J. Chem. Phys. 102: 346 (1995)                   
          Parallel Version:                                
              Performance of parallel TURBOMOLE for Density    
              Functional Calculations                          
              M. v. Arnim and R. Ahlrichs                      
              J. Comp. Chem. 19: 1746 (1998)                   
          RI-J Method:                                     
              Auxiliary Basis Sets to approximate Coulomb      
              Potentials                                       
              Chem. Phys. Lett. 240: 283 (1995)                
              K. Eichkorn, O. Treutler, H. Oehm, M. Haeser     
              and R. Ahlrichs                                  
              Chem. Phys. Lett. 242: 652 (1995)                
                                                           
              Auxiliary Basis Sets for Main Row Atoms and their
              Use to approximate Coulomb Potentials            
              K. Eichkorn, F. Weigend, O. Treutler and         
              R. Ahlrichs                                      
              Theo. Chem. Acc. 97: 119 (1997)                   
                                                           
              Accurate Coulomb-fitting basis sets for H to Rn 
              F. Weigend                                        
              Phys. Chem. Chem. Phys. 8: 1057 (2006)            
                                                           
          Multipole accelerated RI-J (MARI-J):             
              Fast evaluation of the Coulomb potential for     
              electron densities using multipole accelerated   
              resolution of identity approximation             
              M. Sierka, A. Hogekamp and R. Ahlrichs           
              J. Chem. Phys. 118: 9136 (2003)                  
          RI-JK Method:                                     
              A fully direct RI-HF algorithm: Implementation,
              optimised auxiliary basis sets, demonstration of
              accuracy and efficiency                         
              F. Weigend                                      
              Phys. Chem. Chem. Phys. 4: 4285 (2002)           
          Two-component HF and DFT with spin-orbit coupling:  
              Self-consistent treatment of spin-orbit         
              interactions with efficient Hartree-Fock and    
              density functional methods                      
              M. K. Armbruster, F. Weigend, C. van Wüllen and 
              W. Klopper                                      
              Phys. Chem. Chem. Phys. 10: 1748 (2008)         
          Relativistic all-electron 2c calculations           
              An efficient implementation of two-component    
              relativistic exact-decoupling methods for large 
              molecules                                       
              D. Peng, N. Middendorf, F. Weigend, M. Reiher   
              J. Chem. Phys. 138, 184105 (2013)               
                                         


 


              +--------------------------------------------------+
              |      general information about current run       |
              +--------------------------------------------------+

 

 SCF run will be profiled !


 DENSITY CONVERGENCE CHECK SWITCHED ON !
 SCF CONVERGENCE IF RMS(delta[D]) <     0.1000000000E-06

 TPSS meta-GGA functional
 exchange:    LDA + TPSS
 correlation: LDA (PW) + TPSS
 A DFT calculation using the RI-J approximation will be carried out.
 Allocatable memory for RI due to $ricore (MB):        5000


              +--------------------------------------------------+
              | Atomic coordinate, charge and isotop information |
              +--------------------------------------------------+

                    atomic coordinates            atom    charge  isotop
         -2.86614385    0.50730076    0.00000000    c      6.000     0
         -2.35868435   -4.10118003    0.00000000    c      6.000     0
         -6.22007703   -2.54675178    0.00000000    c      6.000     0
         -5.50322076   -0.05275926    0.00000000    c      6.000     0
         -9.48081459    0.00062550    0.00000000    c      6.000     0
         -1.43115007   -1.70294749    0.00000000    n      7.000     0
         -4.76389754   -4.62925266    0.00000000    n      7.000     0
         -7.59671039    1.50604370    0.00000000    n      7.000     0
         -8.77716940   -2.50497750    0.00000000    n      7.000     0
         -0.65378855   -5.96273979    0.00000000    n      7.000     0
         -1.81438653    2.53911162    0.00000000    o      8.000     0
          0.45590021   -1.44738660    0.00000000    h      1.000     0
        -11.42969860    0.54723256    0.00000000    h      1.000     0
         -9.89513516   -4.01115348    0.00000000    h      1.000     0
         -1.30933455   -7.71737697    0.00000000    h      1.000     0
          1.21098753   -5.64747111    0.00000000    h      1.000     0
          5.71905583   -2.73330933    0.00000000    c      6.000     0
          9.34454077    0.00005480    0.00000000    c      6.000     0
          7.87541665    2.05488631    0.00000000    c      6.000     0
          5.17778724    1.61591426    0.00000000    c      6.000     0
          8.31202654   -2.33919749    0.00000000    n      7.000     0
          4.21541208   -0.67433743    0.00000000    n      7.000     0
          3.60926731    3.56229061    0.00000000    n      7.000     0
          4.94584793   -4.88457923    0.00000000    o      8.000     0
          9.37925504   -3.88610085    0.00000000    h      1.000     0
         11.37159519    0.09310681    0.00000000    h      1.000     0
          8.64799150    3.92634068    0.00000000    h      1.000     0
          4.26422182    5.31735297    0.00000000    h      1.000     0
          1.72740244    3.27472720    0.00000000    h      1.000     0
 
       center of nuclear mass  :   -0.05467987   -1.10127937    0.00000000
       center of nuclear charge:   -0.00000025   -1.09604124    0.00000000

              +--------------------------------------------------+
              |               basis set information              |
              +--------------------------------------------------+

              we will work with the 1s 3p 5d 7f 9g ... basis set
              ...i.e. with spherical basis functions...

   type   atoms  prim   cont   basis
   ---------------------------------------------------------------------------
    c        9     77     55   cc-pVQZ   [5s4p3d2f1g|21s6p3d2f1g]
    n        8     77     55   cc-pVQZ   [5s4p3d2f1g|21s6p3d2f1g]
    o        2     77     55   cc-pVQZ   [5s4p3d2f1g|21s6p3d2f1g]
    h       10     32     30   cc-pVQZ   [4s3p2d1f|6s3p2d1f]
   ---------------------------------------------------------------------------
   total:   29   1783   1345
   ---------------------------------------------------------------------------

   total number of primitive shells          :  111
   total number of contracted shells         :  385
   total number of cartesian basis functions : 1680
   total number of SCF-basis functions       : 1345


 integral neglect threshold       :  0.20E-13
 integral storage threshold THIZE :  0.10E-04
 integral storage threshold THIME :         5

 RI-J AUXILIARY BASIS SET information:

              we will work with the 1s 3p 5d 7f 9g ... basis set
              ...i.e. with spherical basis functions...

   type   atoms  prim   cont   basis
   ---------------------------------------------------------------------------
    c        9     70     49   cc-pVQZ   [6s4p3d1f1g|12s5p4d2f1g]
    n        8     70     49   cc-pVQZ   [6s4p3d1f1g|12s5p4d2f1g]
    o        2     70     49   cc-pVQZ   [6s4p3d1f1g|12s5p4d2f1g]
    h       10     16     11   cc-pVQZ   [3s1p1d|5s2p1d]
   ---------------------------------------------------------------------------
   total:   29   1490   1041
   ---------------------------------------------------------------------------

   total number of primitive shells          :   80
   total number of contracted shells         :  335
   total number of cartesian basis functions : 1279
   total number of SCF-basis functions       : 1041


 symmetry group of the molecule :   c1 

 the group has the following generators :
   c1(z)

    1 symmetry operations found

 there are 1 real representations :   a   

 maximum number of shells which are related by symmetry :  1


    mo occupation :
   irrep   mo's   occupied
    a     1345       68
 
 number of basis functions   :         1345
 number of occupied orbitals :           68
 
  
           ------------------
           density functional
           ------------------
 TPSS meta-GGA functional
 exchange:    LDA + TPSS
 correlation: LDA (PW) + TPSS
 grinp -> nfun, dfgga, dfhybrid 
           5 F F
 iterations will be done with small grid
  
 spherical integration : Lebedev's spherical grid
 spherical gridsize    :           5
    i.e. gridpoints    :         590
 value for diffuse not defined
 radial integration    : Chebyshev 2nd kind (scaling 3)
 radial gridsize       :           8
 integration cells     :          29
 partition function    : becke
 partition sharpness   :           3
  

 <rddim> : input of entry tasksize
           from data group '$pardft' failed !

               Default values taken

 <rddim> : input of entry memdiv
           from data group '$pardft' failed !

               Default values taken
  RIDFT: memory allocation for DFT gridpoints
  MEMORY is divided by 1 as DEFAULT
 Each node can hold at most  the            1 -th part
 of the gridpoints    

 biggest AO integral is expected to be     4.785886462
  
           ------------------------
               RI-J - INFORMATION
           ------------------------
 
 
 **************************************************
 *      MEMORY ALLOCATION FOR PARALLEL RI-DFT     *
 **************************************************
 
 
MEMORY FOR (MU NU/ ALPHA), SEQUENTIAL RUN               4991 MByte
 
            DIFFERENCE IN MEMORY NEED:       DIAG./SLAVE  
 
      TOTAL DIFFERENCE :                     83 MByte
 
      difference in xcore:                   10 MByte
      difference in fatmat:                  25 MByte
      getcor calls skipped by slaves:        50 MByte
 
 
           Integral memory available for diagonal.      4991 MByte
 
           Integral memory available for slave             0 MByte
 
         MEMORY FOR (MU NU/ ALPHA) ON DIAGONALIZER      4991 MByte
 
         MEMORY FOR (MU NU/ ALPHA) ON ONE SLAVE            0 MByte
 
         TOTAL MEMORY FOR (MU NU/ ALPHA),ALL NODES      4991 MByte
 
 Contributions to RI integral batches: 
  neglected integral batches:       31634
  direct contribution:               8854
  memory contribution:       33817
 Memory core needed for (P|Q) and Cholesky      9 MByte
 Memory core minimum needed except of (P|Q)     5 MByte
 Total minimum memory core needed (sum)        14 MByte
     number of direct tasks:         160
  
 ****************************************
 Memory allocated for RI-J  5004 MByte
 ****************************************
                                            

          ------------------------
          nuclear repulsion energy  :   1391.97690407    
          ------------------------

 
          -----------------
          -S integrals
          -----------------

 1e-integrals will be neglected if expon. factor < 0.198926E-14
 
          -----------------
          -T+V integrals
          -----------------

 1e-integrals will be neglected if expon. factor < 0.198926E-14
 Difference densities >>NOT<< switched on in parallel ridft!

 automatic virtual orbital shift switched on 
      shift if e(lumo)-e(homo) < 0.10000000    


 DIIS switched on: error vector is FDS-SDF
 Max. Iterations for DIIS is     :   4
 DIIS matrix (see manual) 
    Scaling factor of diagonals  :  1.200
    threshold for scaling factor :  0.000

 scf convergence criterion : increment of total energy < .1000000D-08
                  and increment of one-electron energy < .1000000D-05


 <geterg> : there is no data group $energy 

  MOs are in ASCII format !


 reading orbital data $scfmo  from file mos . 

 orbital characterization : expanded
 
 mo provided and orthogonalized by Cholesky decomposition

 DSCF restart information will be dumped onto file mos


 Starting SCF iterations


 ITERATION  ENERGY          1e-ENERGY        2e-ENERGY     RMS[dD(SAO)]   TOL
   1  -934.05734996512    -4020.0952504     1694.0609963    0.000D+00 0.198D-13
                            Exc = -124.781475026     Coul =  1818.84247136    
                              N = 135.99983548    
                            current damping = 0.700
 
          max. resid. norm for Fia-block=  3.711D-01 for orbital     57a         
          max. resid. fock norm         =  9.325D+00 for orbital   1230a         

 ITERATION  ENERGY          1e-ENERGY        2e-ENERGY     RMS[dD(SAO)]   TOL
   2  -937.41165626433    -4035.3056465     1705.9170861    0.359D-02 0.198D-13
                            Exc = -125.177523264     Coul =  1831.09460941    
                              N = 135.99986248    
                            current damping = 0.650
 
          Norm of current diis error:  5.1550    
          max. resid. norm for Fia-block=  1.691D-01 for orbital      2a         
          max. resid. fock norm         =  3.446D-01 for orbital   1246a         

 ITERATION  ENERGY          1e-ENERGY        2e-ENERGY     RMS[dD(SAO)]   TOL
   3  -937.89793041076    -4039.8981363     1710.0233018    0.177D-02 0.198D-13
                            Exc = -125.700696603     Coul =  1835.72399838    
                              N = 135.99988076    
                            current damping = 0.550
 
          Norm of current diis error:  2.4874    
          max. resid. norm for Fia-block=  6.514D-02 for orbital      2a         
          max. resid. fock norm         =  6.861D-02 for orbital      2a         

 ITERATION  ENERGY          1e-ENERGY        2e-ENERGY     RMS[dD(SAO)]   TOL
   4  -938.04995910421    -4040.6785822     1710.6517191    0.111D-02 0.198D-13
                            Exc = -125.637402496     Coul =  1836.28912155    
                              N = 135.99988669    
                            current damping = 0.450
 
          Norm of current diis error:  1.0213    
          max. resid. norm for Fia-block=  3.763D-02 for orbital     57a         
          max. resid. fock norm         =  8.110D-02 for orbital   1261a         

 ITERATION  ENERGY          1e-ENERGY        2e-ENERGY     RMS[dD(SAO)]   TOL
   5  -938.07015307768    -4041.5877439     1711.5406868    0.484D-03 0.198D-13
                            Exc = -125.816468086     Coul =  1837.35715488    
                              N = 135.99989319    
                            current damping = 0.350
 
          Norm of current diis error: 0.65532    
          max. resid. norm for Fia-block=  1.907D-02 for orbital     66a         
          max. resid. fock norm         =  2.684D-02 for orbital   1192a         
          mo-orthogonalization: Cholesky decomposition

 ITERATION  ENERGY          1e-ENERGY        2e-ENERGY     RMS[dD(SAO)]   TOL
   6  -938.08156187940    -4042.0160991     1711.9576331    0.354D-03 0.198D-13
                            Exc = -125.797947561     Coul =  1837.75558070    
                              N = 135.99989499    
                            current damping = 0.200
 
          Norm of current diis error: 0.19948    
          max. resid. norm for Fia-block=  5.699D-03 for orbital     59a         
          max. resid. fock norm         =  1.240D-02 for orbital   1287a         

 ITERATION  ENERGY          1e-ENERGY        2e-ENERGY     RMS[dD(SAO)]   TOL
   7  -938.08188763263    -4041.6145430     1711.5557513    0.152D-03 0.198D-13
                            Exc = -125.780063890     Coul =  1837.33581521    
                              N = 135.99989465    
                            current damping = 0.250
 
          Norm of current diis error: 0.17806    
          max. resid. norm for Fia-block=  3.043D-03 for orbital     68a         
          max. resid. fock norm         =  5.502D-03 for orbital   1007a         

 ITERATION  ENERGY          1e-ENERGY        2e-ENERGY     RMS[dD(SAO)]   TOL
   8  -938.08271059803    -4041.7557664     1711.6961517    0.517D-04 0.198D-13
                            Exc = -125.788688189     Coul =  1837.48483993    
                              N = 135.99989527    
                            current damping = 0.300
 
          Norm of current diis error: 0.36734E-01
          max. resid. norm for Fia-block=  1.063D-03 for orbital     63a         
          max. resid. fock norm         =  1.864D-03 for orbital   1255a         

 ITERATION  ENERGY          1e-ENERGY        2e-ENERGY     RMS[dD(SAO)]   TOL
   9  -938.08271423263    -4041.8646019     1711.8049836    0.152D-04 0.198D-13
                            Exc = -125.797900247     Coul =  1837.60288389    
                              N = 135.99989515    
                            current damping = 0.150
 
          Norm of current diis error: 0.33535E-01
          max. resid. norm for Fia-block=  6.007D-04 for orbital     67a         
          max. resid. fock norm         =  1.082D-03 for orbital   1302a         

 ITERATION  ENERGY          1e-ENERGY        2e-ENERGY     RMS[dD(SAO)]   TOL
  10  -938.08273701783    -4041.8332951     1711.7736540    0.124D-04 0.198D-13
                            Exc = -125.794327415     Coul =  1837.56798140    
                              N = 135.99989520    
                            current damping = 0.200
 
          Norm of current diis error: 0.16418E-01
          max. resid. norm for Fia-block=  2.830D-04 for orbital     54a         
          max. resid. fock norm         =  5.426D-04 for orbital   1193a         
          mo-orthogonalization: Cholesky decomposition

 ITERATION  ENERGY          1e-ENERGY        2e-ENERGY     RMS[dD(SAO)]   TOL
  11  -938.08274342719    -4041.8249286     1711.7652811    0.381D-05 0.198D-13
                            Exc = -125.793997121     Coul =  1837.55927818    
                              N = 135.99989520    
                            current damping = 0.050
 
          Norm of current diis error: 0.34925E-02
          max. resid. norm for Fia-block=  8.769D-05 for orbital     68a         
          max. resid. fock norm         =  1.570D-04 for orbital   1334a         

 ITERATION  ENERGY          1e-ENERGY        2e-ENERGY     RMS[dD(SAO)]   TOL
  12  -938.08274331849    -4041.8193464     1711.7596990    0.115D-05 0.198D-13
                            Exc = -125.793934794     Coul =  1837.55363382    
                              N = 135.99989518    
                            current damping = 0.100
 
          Norm of current diis error: 0.40925E-02
          max. resid. norm for Fia-block=  4.714D-05 for orbital     68a         
          max. resid. fock norm         =  8.070D-05 for orbital   1334a         

 ITERATION  ENERGY          1e-ENERGY        2e-ENERGY     RMS[dD(SAO)]   TOL
  13  -938.08274370394    -4041.8234008     1711.7637530    0.580D-06 0.198D-13
                            Exc = -125.793923926     Coul =  1837.55767694    
                              N = 135.99989519    
                            current damping = 0.150
 
          Norm of current diis error: 0.83368E-03
          max. resid. norm for Fia-block=  1.644D-05 for orbital     57a         
          max. resid. fock norm         =  4.059D-05 for orbital   1335a         

 ITERATION  ENERGY          1e-ENERGY        2e-ENERGY     RMS[dD(SAO)]   TOL
  14  -938.08274371355    -4041.8236103     1711.7639625    0.214D-06 0.198D-13
                            Exc = -125.794021785     Coul =  1837.55798429    
                              N = 135.99989519    
                            current damping = 0.050
 
          Norm of current diis error: 0.53789E-03
          max. resid. norm for Fia-block=  8.558D-06 for orbital     62a         
          max. resid. fock norm         =  1.630D-05 for orbital   1335a         

 ITERATION  ENERGY          1e-ENERGY        2e-ENERGY     RMS[dD(SAO)]   TOL
  15  -938.08274371902    -4041.8236799     1711.7640321    0.132D-06 0.198D-13
                            Exc = -125.793970222     Coul =  1837.55800231    
                              N = 135.99989519    
                            current damping = 0.050
 
          Norm of current diis error: 0.23522E-03
          max. resid. norm for Fia-block=  4.750D-06 for orbital     62a         
          max. resid. fock norm         =  7.923D-06 for orbital   1000a         
          mo-orthogonalization: Cholesky decomposition

 DENSITY CONVERGED !


 ITERATION  ENERGY          1e-ENERGY        2e-ENERGY     RMS[dD(SAO)]   TOL
  16  -938.08274371992    -4041.8236718     1711.7640240    0.689D-07 0.198D-13
                            Exc = -125.793966041     Coul =  1837.55799008    
                              N = 135.99989519    
                            current damping = 0.100
 
          Norm of current diis error: 0.13312E-03
          max. resid. norm for Fia-block=  2.414D-06 for orbital     54a         
          max. resid. fock norm         =  3.831D-06 for orbital   1193a         

 DENSITY CONVERGED !


 ITERATION  ENERGY          1e-ENERGY        2e-ENERGY     RMS[dD(SAO)]   TOL
  17  -938.08274372027    -4041.8236310     1711.7639832    0.420D-07 0.198D-13
                            Exc = -125.793979795     Coul =  1837.55796298    
                              N = 135.99989519    
                            current damping = 0.050
 
          Norm of current diis error: 0.57416E-04
          max. resid. norm for Fia-block=  1.114D-06 for orbital     54a         
          max. resid. fock norm         =  2.107D-06 for orbital   1193a         

 DENSITY CONVERGED !


 ITERATION  ENERGY          1e-ENERGY        2e-ENERGY     RMS[dD(SAO)]   TOL
  18  -938.08274372033    -4041.8236746     1711.7640268    0.217D-07 0.198D-13
                            Exc = -125.793975152     Coul =  1837.55800195    
                              N = 135.99989519    
                            current damping = 0.100
 
          Norm of current diis error: 0.31407E-04
          max. resid. norm for Fia-block=  5.348D-07 for orbital     64a         
          max. resid. fock norm         =  1.054D-06 for orbital   1193a         

 DENSITY CONVERGED !


 ITERATION  ENERGY          1e-ENERGY        2e-ENERGY     RMS[dD(SAO)]   TOL
  19  -938.08274372034    -4041.8236538     1711.7640060    0.121D-07 0.198D-13
                            Exc = -125.793974733     Coul =  1837.55798072    
                              N = 135.99989519    
                            current damping = 0.150
 
          Norm of current diis error: 0.12389E-04
          max. resid. norm for Fia-block=  2.564D-07 for orbital     68a         
          max. resid. fock norm         =  5.042D-07 for orbital   1338a         

 ENERGY & DENSITY CONVERGED !


 ITERATION  ENERGY          1e-ENERGY        2e-ENERGY     RMS[dD(SAO)]   TOL
  20  -938.08247476439    -4041.8236516     1711.7642727    0.465D-08 0.198D-13
                            Exc = -125.793706377     Coul =  1837.55797909    
                              N = 136.00000234    
                            current damping = 0.200
 
          Norm of current diis error: 0.58955E-05
          max. resid. norm for Fia-block=  9.850D-08 for orbital     68a         
          max. resid. fock norm         =  1.731D-07 for orbital   1338a         

 End of SCF iterations

   convergence criteria satisfied after   20 iterations


                  ------------------------------------------ 
                 |  total energy      =   -938.08247476439  |
                  ------------------------------------------ 
                 :  kinetic energy    =    935.44428905070  :
                 :  potential energy  =  -1873.52676381509  :
                 :  virial theorem    =      1.99718768255  :
                 :  wavefunction norm =      1.00000000000  :
                  .......................................... 


 <geterg> : there is no data group $energy 


 <skperg> : $end is missing 


 orbitals $scfmo  will be written to file mos

    irrep                 64a         65a         66a         67a         68a   
 eigenvalues H         -0.23008    -0.22559    -0.21719    -0.20880    -0.17014
            eV          -6.2609     -6.1387     -5.9101     -5.6818     -4.6298
 occupation              2.0000      2.0000      2.0000      2.0000      2.0000 

    irrep                 69a         70a         71a         72a         73a   
 eigenvalues H         -0.07145    -0.02534    -0.01687    -0.00705    -0.00378
            eV          -1.9443     -0.6896     -0.4592     -0.1918     -0.1028
 
 
 ! grave: sending quit signal to master process
 
 
 
 
 ==============================================================================
                           electrostatic moments
 ==============================================================================

 reference point for electrostatic moments:    0.00000   0.00000   0.00000

 
              nuc           elec       ->  total
 ------------------------------------------------------------------------------
                          charge      
 ------------------------------------------------------------------------------
         136.000000    -136.000000       0.000000
 
 ------------------------------------------------------------------------------
                       dipole moment  
 ------------------------------------------------------------------------------
   x      -0.000034       2.238149       2.238115
   y    -149.061609     148.711922      -0.349687
   z       0.000000       0.000000       0.000000
 
   | dipole moment | =     2.2653 a.u. =     5.7577 debye 
 
 ------------------------------------------------------------------------------
                     quadrupole moment
 ------------------------------------------------------------------------------
  xx    4874.835189   -4919.835876     -45.000687
  yy    1258.439663   -1336.207454     -77.767790
  zz       0.000000     -82.446760     -82.446760
  xy     238.934914    -226.422224      12.512690
  xz       0.000000       0.000000       0.000000
  yz       0.000000       0.000000       0.000000
 
     1/3  trace=     -68.405079
     anisotropy=      41.455932
 
 ==============================================================================
 

    ridft profiling
  --------------------------------------------------------------------
             module   cpu total (s)       %  wall total (s)       %

               RIDFT           924.0  100.00           923.7  100.00
         Ridft_b_scf            30.1    3.26            30.1    3.26
        b_scf_prelim             0.0    0.00             0.0    0.00
        b_scf_molinp             0.0    0.00             0.0    0.00
         b_scf_init0             0.0    0.00             0.0    0.00
        b_scf_auxbas             0.0    0.00             0.0    0.00
      b_scf_symmetry             0.0    0.00             0.0    0.00
         b_scf_cosmo             0.0    0.00             0.0    0.00
        b_scf_params             2.8    0.30             2.8    0.30
          b_scf_ri-j            20.5    2.21            20.5    2.22
    b_scf_ri-j_auxpq            20.4    2.21            20.5    2.21
     ri-j_auxpq_chol             0.2    0.02             0.2    0.03
         b_scf_1elec             0.8    0.09             0.8    0.09
       b_scf_moinput             6.0    0.65             6.0    0.65
     moinput_orthmos             5.9    0.64             5.9    0.64
    b_scf_dft-dstmax             0.0    0.00             0.0    0.00
           Ridft_scf           893.6   96.71           893.2   96.70
          Scf_b_loop             0.0    0.00             0.0    0.00
                noga             0.0    0.00             0.0    0.00
            Scf_loop           892.2   96.57           891.9   96.56
     scf_loop_mkdmat             2.4    0.26             2.4    0.26
       scf_loop_ri-j            36.8    3.99            36.8    3.99
      parlp1.bc.dens             1.2    0.13             1.2    0.13
        parlp1.gs.gp             0.0    0.00             0.0    0.00
        parlp2.bc.gq             0.0    0.00             0.0    0.00
        scf_loop_dft           761.8   82.45           761.5   82.45
      pardft.bc.dens             0.0    0.00             0.0    0.00
        dft_grid_con             0.4    0.04             0.4    0.04
          dft_xcmrhf           747.7   80.92           747.4   80.92
          dft_getval            12.4    1.34            12.4    1.34
          funct2 dst             0.1    0.01             0.1    0.01
      funct2 f2loop1             3.8    0.41             3.7    0.40
      funct2 f2loop2             4.2    0.46             4.2    0.46
          funct2 s+c             4.0    0.43             4.0    0.44
        funct2 cmf_2             3.6    0.38             3.6    0.39
          dft_mkdens           362.4   39.22           362.2   39.21
        dft_mgga-fun             0.6    0.06             0.6    0.06
          dft_mkfock           372.1   40.27           372.0   40.27
     pardft.red.fock            62.8    6.80            62.7    6.79
     scf_loop_energy             0.0    0.00             0.0    0.00
     scf_loop_mkfock             0.1    0.01             0.1    0.01
       scf_loop_diis            37.9    4.10            37.8    4.10
       scf_loop_diag            25.4    2.75            25.4    2.75
         diag_tritrn             7.5    0.81             7.5    0.81
          diag_rdiag            17.8    1.93            17.8    1.93
     scf_loop_modump            21.8    2.35            21.7    2.35
      scf_loop_ortho             5.2    0.57             5.2    0.57
          Scf_a_loop             1.3    0.14             1.3    0.14
         Ridft_a_scf             0.3    0.03             0.3    0.03
         a_scf_fanal             0.3    0.03             0.3    0.03
 


    ------------------------------------------------------------------------
         total  cpu-time : 15 minutes and 26 seconds
         total wall-time : 15 minutes and 25 seconds
    ------------------------------------------------------------------------


   ****  ridft : all done  ****


    2018-02-01 18:38:49.334 

