 this is node-proc. number 0 running on node c-14-42.gp.local
 the total number of node-proc. spawned is  61

 dscfserver (c-14-42.gp.local) : TURBOMOLE V7.2 ( 21471 ) 7 Nov 2017 at 16:15:16
 Copyright (C) 2017 TURBOMOLE GmbH, Karlsruhe


    2018-03-01 18:41:47.661 

 
    0:06:46 ---- Start global counter...
    5:18:33 ---- ... finished.
 
    5:25:43 ---- Start global counter...
    9:59:29 ---- ... finished.
 
   10:06:43 ---- Start global counter...
   14:35:50 ---- ... finished.
 
   14:43:17 ---- Start global counter...
   18:48:16 ---- ... finished.
 
   18:55:40 ---- Start global counter...
   22:50:56 ---- ... finished.
 
   23:01:14 ---- Start global counter...
   26:25:55 ---- ... finished.
 
   26:33:30 ---- Start global counter...
   29:42:35 ---- ... finished.
 
   29:50:19 ---- Start global counter...
   32:35:35 ---- ... finished.
 
   32:43:11 ---- Start global counter...
   35:15:40 ---- ... finished.
 
   35:23:12 ---- Start global counter...
   37:39:24 ---- ... finished.
 
   37:50:19 ---- Start global counter...
   39:52:08 ---- ... finished.
 
   40:00:23 ---- Start global counter...
   41:47:47 ---- ... finished.
 
   41:55:44 ---- Start global counter...
   43:33:55 ---- ... finished.
 
   43:41:53 ---- Start global counter...
   45:12:09 ---- ... finished.
 
   45:19:57 ---- Start global counter...
   46:41:56 ---- ... finished.
 
   46:52:45 ---- Start global counter...
   48:14:43 ---- ... finished.
 
   48:22:24 ---- Start global counter...
   50:05:09 ---- ... finished.
 
   50:13:02 ---- Start global counter...
   51:39:49 ---- ... finished.
 
   51:47:45 ---- Start global counter...
   53:14:55 ---- ... finished.
 
   53:22:41 ---- Start global counter...
   54:47:59 ---- ... finished.
 
   54:59:10 ---- Start global counter...
   56:26:54 ---- ... finished.
 
   56:33:38 ---- ByeBye Tag received


 ! Total wall-clock time in seconds  :   203618.0
 ! Time (sec) spent in global counter:   192839.6
 ! So-called SERIAL wall-clock time  :    10778.3

  *** Regular termination of server ***
 total turnaround time of dscfserver ******** sec
 cpu elapsed by dscfserver process   11419.01 sec 

   ***  dscf server : all done  ***


    2018-03-04 03:15:29.791 

