
   OpenMP run-time library returned nthreads = 16
 operating system is UNIX !

 dscf (c-3-41) : TURBOMOLE V7.3 ( 22142 ) 4 Jul 2018 at 18:12:42
 Copyright (C) 2018 TURBOMOLE GmbH, Karlsruhe


    2019-04-03 08:13:58.870 



                             d s c f - program

                   idea & directorship : reinhart ahlrichs
                   program development : marco haeser
                                         michael baer
                           dft version : oliver treutler


                          quantum chemistry group
                          universitaet  karlsruhe
                                  germany




                          References             
                                                 
          TURBOMOLE:                             
              R. Ahlrichs, M. Baer, M. Haeser, H. Horn, and
              C. Koelmel
              Electronic structure calculations on workstation
              computers: the program system TURBOMOLE
              Chem. Phys. Lett. 162: 165 (1989)
          Density Functional:                              
              O. Treutler and R. Ahlrichs                      
              Efficient Molecular Numerical Integration Schemes
              J. Chem. Phys. 102: 346 (1995)                   
          Parallel Version:                                
              Performance of parallel TURBOMOLE for Density    
              Functional Calculations                          
              M. v. Arnim and R. Ahlrichs                      
              J. Comp. Chem. 19: 1746 (1998)                   
                                         




              +--------------------------------------------------+
              | Atomic coordinate, charge and isotop information |
              +--------------------------------------------------+

                    atomic coordinates            atom    charge  isotop
          1.14665739    2.51413293    0.59797456    c      6.000     0
          2.35554071    4.16167648    0.62427540    h      1.000     0
          2.11287380    0.16487645    1.29468260    c      6.000     0
          4.06301990   -0.00734496    1.87793091    h      1.000     0
          0.55350511   -1.95792138    1.26442949    c      6.000     0
          1.30107051   -3.78126921    1.80540272    h      1.000     0
         -1.97066638   -1.73233297    0.54459949    c      6.000     0
         -3.17986023   -3.37975298    0.52789316    h      1.000     0
         -2.93585656    0.61859994   -0.15107070    c      6.000     0
         -4.89294495    0.79423126   -0.71308097    h      1.000     0
         -1.37579931    2.74169623   -0.12632505    c      6.000     0
         -2.12334124    4.56493328   -0.66870120    h      1.000     0
          0.79177046   -0.51339860    7.60610416    c      6.000     0
          3.05092420   -0.20357659    7.75069802    o      8.000     0
         -0.30332900   -2.80262221    7.98298803    o      8.000     0
          1.08458198   -3.93855264    8.34777720    h      1.000     0
         -1.13931087    1.45934607    7.00010455    c      6.000     0
         -0.23546541    3.29416876    6.91162234    h      1.000     0
         -1.99497906    1.01866914    5.18085000    h      1.000     0
         -2.62246435    1.44888360    8.42212248    h      1.000     0
 
       center of nuclear mass  :    0.02773396   -0.03120651    3.62508906
       center of nuclear charge:   -0.01574377   -0.00140481    3.59957534

              +--------------------------------------------------+
              |               basis set information              |
              +--------------------------------------------------+

              we will work with the 1s 3p 5d 7f 9g ... basis set
              ...i.e. with spherical basis functions...

   type   atoms  prim   cont   basis
   ---------------------------------------------------------------------------
    c        8     77     57   def2-QZVP   [7s4p3d2f1g|15s8p3d2f1g]
    h       10     33     30   def2-QZVP   [4s3p2d1f|7s3p2d1f]
    o        2     77     57   def2-QZVP   [7s4p3d2f1g|15s8p3d2f1g]
   ---------------------------------------------------------------------------
   total:   20   1100    870
   ---------------------------------------------------------------------------

   total number of primitive shells          :   71
   total number of contracted shells         :  270
   total number of cartesian basis functions : 1070
   total number of SCF-basis functions       :  870


 integral neglect threshold       :  0.31E-13
 integral storage threshold THIZE :  0.10E-04
 integral storage threshold THIME :         5


 DENSITY CONVERGENCE CHECK SWITCHED ON !
 SCF CONVERGENCE IF RMS(delta[D]) <     0.1000000000E-06


 symmetry group of the molecule :   c1 

 the group has the following generators :
   c1(z)

    1 symmetry operations found

 there are 1 real representations :   a   

 maximum number of shells which are related by symmetry :  1


    mo occupation :
   irrep   mo's   occupied
    a      870       37
 
 number of basis functions   :                    870
 number of occupied orbitals :                     37
 

 automatic virtual orbital shift switched on 
      shift if e(lumo)-e(homo) < 0.10000000    


          ------------------------
          nuclear repulsion energy  :   496.780906011    
          ------------------------


         -----------------
         -S,T+V- integrals
         -----------------

 1e-integrals will be neglected if expon. factor < 0.312333E-14
 
   Difference densities algorithm switched on.
   The maximal number of linear combinations of
   difference densities is                    20 .

 DIIS switched on: error vector is FDS-SDF
 Max. Iterations for DIIS is     :   5
 DIIS matrix (see manual) 
    Scaling factor of diagonals  :  1.200
    threshold for scaling factor :  0.000

 scf convergence criterion : increment of total energy < .1000000D-08
                  and increment of one-electron energy < .1000000D-05

  MOs are in ASCII format !


 reading orbital data $scfmo  from file mos
 orbital characterization : scfconv=9

 DSCF restart information will be dumped onto file mos

 
                                              current damping :  0.700
 ITERATION  ENERGY          1e-ENERGY        2e-ENERGY     RMS[dD(SAO)]   TOL
   1  -458.61062458859    -1610.8285718     655.43704118    0.000D+00 0.312D-13
          max. resid. norm for Fia-block=  2.612D-01 for orbital      2a         
          max. resid. fock norm         =  8.020D-01 for orbital    870a         
          Delta Eig. =    62.2341824669 eV 
 
                                              current damping :  0.650
 ITERATION  ENERGY          1e-ENERGY        2e-ENERGY     RMS[dD(SAO)]   TOL
   2  -458.69494603625    -1609.5432290     654.06737698    0.635D-03 0.204D-13
          Norm of current diis error: 0.92243    
          max. resid. norm for Fia-block=  1.135D-01 for orbital      1a         
          max. resid. fock norm         =  3.300D-01 for orbital    870a         
          Delta Eig. =    26.5730388994 eV 
 
                                              current damping :  0.600
 ITERATION  ENERGY          1e-ENERGY        2e-ENERGY     RMS[dD(SAO)]   TOL
   3  -458.71200208114    -1609.7685299     654.27562181    0.297D-03 0.153D-13
          Norm of current diis error: 0.40182    
          max. resid. norm for Fia-block=  4.729D-02 for orbital      2a         
          max. resid. fock norm         =  1.296D-01 for orbital    870a         
          Delta Eig. =    10.5343041463 eV 
 
                                              current damping :  0.650
 ITERATION  ENERGY          1e-ENERGY        2e-ENERGY     RMS[dD(SAO)]   TOL
   4  -458.71567710157    -1609.6766357     654.18005261    0.130D-03 0.135D-13
          Norm of current diis error: 0.16114    
          max. resid. norm for Fia-block=  1.749D-02 for orbital      1a         
          max. resid. fock norm         =  4.964D-02 for orbital    869a         
          Delta Eig. =     4.0539225409 eV 
 
                                              current damping :  0.500
 ITERATION  ENERGY          1e-ENERGY        2e-ENERGY     RMS[dD(SAO)]   TOL
   5  -458.71630314777    -1609.6545505     654.15734131    0.488D-04 0.125D-13
          Norm of current diis error: 0.68661E-01
          max. resid. norm for Fia-block=  6.962D-03 for orbital      2a         
          max. resid. fock norm         =  1.929D-02 for orbital    870a         
 mo-orthogonalization: Cholesky decomposition
          Delta Eig. =     1.6997784517 eV 
 
                                              current damping :  0.350
 ITERATION  ENERGY          1e-ENERGY        2e-ENERGY     RMS[dD(SAO)]   TOL
   6  -458.71643551784    -1609.6480892     654.15074763    0.229D-04 0.118D-13
          Norm of current diis error: 0.26023E-01
          max. resid. norm for Fia-block=  2.280D-03 for orbital      1a         
          max. resid. fock norm         =  6.465D-03 for orbital    869a         
          Delta Eig. =     0.6420544528 eV 
 
                                              current damping :  0.200
 ITERATION  ENERGY          1e-ENERGY        2e-ENERGY     RMS[dD(SAO)]   TOL
   7  -458.71645896227    -1609.6443935     654.14702857    0.945D-05 0.111D-13
          Norm of current diis error: 0.86440E-02
          max. resid. norm for Fia-block=  7.441D-04 for orbital     24a         
          max. resid. fock norm         =  1.679D-03 for orbital    870a         
          Delta Eig. =     0.1873539715 eV 
 
                                              current damping :  0.050
 ITERATION  ENERGY          1e-ENERGY        2e-ENERGY     RMS[dD(SAO)]   TOL
   8  -458.71646241661    -1609.6437464     654.14637798    0.360D-05 0.105D-13
          Norm of current diis error: 0.25772E-02
          max. resid. norm for Fia-block=  2.649D-04 for orbital     24a         
          max. resid. fock norm         =  3.418D-04 for orbital    869a         
          Delta Eig. =     0.0391685430 eV 
 
                                              current damping :  0.050
 ITERATION  ENERGY          1e-ENERGY        2e-ENERGY     RMS[dD(SAO)]   TOL
   9  -458.71646286103    -1609.6434874     654.14611853    0.128D-05 0.999D-14
          Norm of current diis error: 0.87142E-03
          max. resid. norm for Fia-block=  9.699D-05 for orbital     35a         
          max. resid. fock norm         =  1.713D-04 for orbital    870a         
          Delta Eig. =     0.0059612482 eV 
 
                                              current damping :  0.050
 ITERATION  ENERGY          1e-ENERGY        2e-ENERGY     RMS[dD(SAO)]   TOL
  10  -458.71646290938    -1609.6434604     654.14609147    0.408D-06 0.964D-14
          Norm of current diis error: 0.42387E-03
          max. resid. norm for Fia-block=  4.158D-05 for orbital     34a         
          max. resid. fock norm         =  9.417D-05 for orbital    869a         
 mo-orthogonalization: Cholesky decomposition
          Delta Eig. =     0.0031530244 eV 
 
                                              current damping :  0.100
 ITERATION  ENERGY          1e-ENERGY        2e-ENERGY     RMS[dD(SAO)]   TOL
  11  -458.71646291931    -1609.6435081     654.14613920    0.157D-06 0.939D-14
          Norm of current diis error: 0.17842E-03
          max. resid. norm for Fia-block=  1.722D-05 for orbital     35a         
          max. resid. fock norm         =  2.576D-05 for orbital    869a         
          Delta Eig. =     0.0008534852 eV 

 DENSITY CONVERGED !

 
                                              current damping :  0.150
 ITERATION  ENERGY          1e-ENERGY        2e-ENERGY     RMS[dD(SAO)]   TOL
  12  -458.71646292133    -1609.6434858     654.14611691    0.719D-07 0.911D-14
          Norm of current diis error: 0.60796E-04
          max. resid. norm for Fia-block=  5.920D-06 for orbital     34a         
          max. resid. fock norm         =  6.104D-06 for orbital     34a         
          Delta Eig. =     0.0000872030 eV 

 DENSITY CONVERGED !

 
                                              current damping :  0.200
 ITERATION  ENERGY          1e-ENERGY        2e-ENERGY     RMS[dD(SAO)]   TOL
  13  -458.71646292168    -1609.6434995     654.14613052    0.292D-07 0.888D-14
          Norm of current diis error: 0.31352E-04
          max. resid. norm for Fia-block=  2.867D-06 for orbital     36a         
          max. resid. fock norm         =  2.868D-06 for orbital     36a         
          Delta Eig. =     0.0000522018 eV 

 ENERGY & DENSITY CONVERGED !

 
                                              current damping :  0.250
 ITERATION  ENERGY          1e-ENERGY        2e-ENERGY     RMS[dD(SAO)]   TOL
  14  -458.71646292177    -1609.6434970     654.14612812    0.150D-07 0.889D-14
          max. resid. norm for Fia-block=  9.725D-07 for orbital     36a         
          max. resid. fock norm         =  9.730D-07 for orbital     36a         

 convergence criteria satisfied after    14 iterations


                  ------------------------------------------ 
                 |  total energy      =   -458.71646292177  |
                  ------------------------------------------ 
                 :  kinetic energy    =    458.17247441985  :
                 :  potential energy  =   -916.88893734162  :
                 :  virial theorem    =      1.99881410731  :
                 :  wavefunction norm =      1.00000000000  :
                  .......................................... 


 orbitals $scfmo  will be written to file mos

    irrep                 33a         34a         35a         36a         37a   
 eigenvalues H         -0.49824    -0.47920    -0.44957    -0.34220    -0.34123
            eV         -13.5580    -13.0398    -12.2336     -9.3118     -9.2854
 occupation              2.0000      2.0000      2.0000      2.0000      2.0000 

    irrep                 38a         39a         40a         41a         42a   
 eigenvalues H          0.09777     0.11100     0.11255     0.11379     0.12271
            eV           2.6604      3.0205      3.0626      3.0965      3.3393
 
 
 
 
 ==============================================================================
                           electrostatic moments
 ==============================================================================

 reference point for electrostatic moments:    0.00000   0.00000   0.00000

 
              nuc           elec       ->  total
 ------------------------------------------------------------------------------
                          charge      
 ------------------------------------------------------------------------------
          74.000000     -74.000000      -0.000000
 
 ------------------------------------------------------------------------------
                       dipole moment  
 ------------------------------------------------------------------------------
   x      -1.165039       0.461353      -0.703686
   y      -0.103956       0.034745      -0.069211
   z     266.368575    -266.545441      -0.176866
 
   | dipole moment | =     0.7289 a.u. =     1.8526 debye 
 
 ------------------------------------------------------------------------------
                     quadrupole moment
 ------------------------------------------------------------------------------
  xx     284.036445    -329.761582     -45.725137
  yy     298.031417    -337.080834     -39.049417
  zz    1878.984013   -1927.958923     -48.974910
  xy     -19.601162      17.576322      -2.024840
  xz     169.759196    -173.757071      -3.997875
  yz    -168.873194     166.597591      -2.275603
 
     1/3  trace=     -44.583155
     anisotropy=      12.353335
 
 ==============================================================================
 


    ------------------------------------------------------------------------
         total  cpu-time :  3 hours 34 minutes and  6 seconds
         total wall-time : 13 minutes and 45 seconds
    ------------------------------------------------------------------------

   ****  dscf : all done  ****


    2019-04-03 08:27:43.385 

