
 eiger (gplogin3.local) : TURBOMOLE V7.2 ( 21285 ) 30 Jun 2017 at 11:51:10
 Copyright (C) 2017 TURBOMOLE GmbH, Karlsruhe


    2017-11-11 17:23:15.397 

                                                                                
  
 HOMO-LUMO Separation
   HOMO:   252.   252 a     -0.16334472 H =     -4.44484 eV
   LUMO:   253.   253 a     -0.16143834 H =     -4.39296 eV
   Gap :                    +0.00190639 H =     +0.05188 eV
 
Number of MOs=   2728, Electrons=    504.00, Symmetry: c1   
 
   Nr.   Orbital    Occupation       Energy
  269.   269 a                     -0.064714 H =        -1.761 eV
  268.   268 a                     -0.074751 H =        -2.034 eV
  267.   267 a                     -0.078812 H =        -2.145 eV
  266.   266 a                     -0.084279 H =        -2.293 eV
  265.   265 a                     -0.084790 H =        -2.307 eV
  264.   264 a                     -0.095651 H =        -2.603 eV
  263.   263 a                     -0.096794 H =        -2.634 eV
  262.   262 a                     -0.097401 H =        -2.650 eV
  261.   261 a                     -0.098347 H =        -2.676 eV
  260.   260 a                     -0.114056 H =        -3.104 eV
  259.   259 a                     -0.115117 H =        -3.133 eV
  258.   258 a                     -0.116005 H =        -3.157 eV
  257.   257 a                     -0.116916 H =        -3.181 eV
  256.   256 a                     -0.143406 H =        -3.902 eV
  255.   255 a                     -0.144629 H =        -3.936 eV
  254.   254 a                     -0.160940 H =        -4.379 eV
  253.   253 a                     -0.161438 H =        -4.393 eV
  252.   252 a        2.000        -0.163345 H =        -4.445 eV
  251.   251 a        2.000        -0.163418 H =        -4.447 eV
  250.   250 a        2.000        -0.164103 H =        -4.465 eV
  249.   249 a        2.000        -0.164114 H =        -4.466 eV
  248.   248 a        2.000        -0.164782 H =        -4.484 eV
  247.   247 a        2.000        -0.164858 H =        -4.486 eV
  246.   246 a        2.000        -0.165014 H =        -4.490 eV
  245.   245 a        2.000        -0.165069 H =        -4.492 eV
  244.   244 a        2.000        -0.170555 H =        -4.641 eV
  243.   243 a        2.000        -0.170928 H =        -4.651 eV
  242.   242 a        2.000        -0.171409 H =        -4.664 eV
  241.   241 a        2.000        -0.172088 H =        -4.683 eV
  240.   240 a        2.000        -0.249732 H =        -6.796 eV
  239.   239 a        2.000        -0.252047 H =        -6.859 eV
  238.   238 a        2.000        -0.254246 H =        -6.918 eV
  237.   237 a        2.000        -0.254303 H =        -6.920 eV


    ------------------------------------------------------------------------
         total  cpu-time :   3.50 seconds
         total wall-time :   3.51 seconds
    ------------------------------------------------------------------------

   ****  eiger : all done  ****


    2017-11-11 17:23:18.885 

