
   OpenMP run-time library returned nthreads = 28
 operating system is UNIX !

 dscf (c-16-38) : TURBOMOLE V7.3 ( 22142 ) 4 Jul 2018 at 18:12:42
 Copyright (C) 2018 TURBOMOLE GmbH, Karlsruhe


    2019-04-01 21:42:15.259 



                             d s c f - program

                   idea & directorship : reinhart ahlrichs
                   program development : marco haeser
                                         michael baer
                           dft version : oliver treutler


                          quantum chemistry group
                          universitaet  karlsruhe
                                  germany




                          References             
                                                 
          TURBOMOLE:                             
              R. Ahlrichs, M. Baer, M. Haeser, H. Horn, and
              C. Koelmel
              Electronic structure calculations on workstation
              computers: the program system TURBOMOLE
              Chem. Phys. Lett. 162: 165 (1989)
          Density Functional:                              
              O. Treutler and R. Ahlrichs                      
              Efficient Molecular Numerical Integration Schemes
              J. Chem. Phys. 102: 346 (1995)                   
          Parallel Version:                                
              Performance of parallel TURBOMOLE for Density    
              Functional Calculations                          
              M. v. Arnim and R. Ahlrichs                      
              J. Comp. Chem. 19: 1746 (1998)                   
                                         




              +--------------------------------------------------+
              | Atomic coordinate, charge and isotop information |
              +--------------------------------------------------+

                    atomic coordinates            atom    charge  isotop
          4.22975174    0.48107567    0.53388399    n      7.000     0
          4.99257055    1.50137571    1.96100534    h      1.000     0
          5.01966458    1.17532561   -1.06415521    h      1.000     0
          4.93330215   -2.18567338    0.82443458    c      6.000     0
          4.12773571   -3.26476857   -0.72774007    h      1.000     0
          6.96551106   -2.53846531    0.87315814    h      1.000     0
          4.11226797   -2.91209735    2.56267271    h      1.000     0
 
       center of nuclear mass  :    4.63389855   -0.82430206    0.67661265
       center of nuclear charge:    4.69032361   -0.87695225    0.68270757

              +--------------------------------------------------+
              |               basis set information              |
              +--------------------------------------------------+

              we will work with the 1s 3p 5d 7f 9g ... basis set
              ...i.e. with spherical basis functions...

   type   atoms  prim   cont   basis
   ---------------------------------------------------------------------------
    n        1     77     55   cc-pVQZ   [5s4p3d2f1g|21s6p3d2f1g]
    h        5     32     30   cc-pVQZ   [4s3p2d1f|6s3p2d1f]
    c        1     77     55   cc-pVQZ   [5s4p3d2f1g|21s6p3d2f1g]
   ---------------------------------------------------------------------------
   total:    7    314    260
   ---------------------------------------------------------------------------

   total number of primitive shells          :   78
   total number of contracted shells         :   80
   total number of cartesian basis functions :  315
   total number of SCF-basis functions       :  260


 integral neglect threshold       :  0.11E-12
 integral storage threshold THIZE :  0.10E-04
 integral storage threshold THIME :         5


 DENSITY CONVERGENCE CHECK SWITCHED ON !
 SCF CONVERGENCE IF RMS(delta[D]) <     0.1000000000E-06


 symmetry group of the molecule :   c1 

 the group has the following generators :
   c1(z)

    1 symmetry operations found

 there are 1 real representations :   a   

 maximum number of shells which are related by symmetry :  1


    mo occupation :
   irrep   mo's   occupied
    a      260        9
 
 number of basis functions   :                    260
 number of occupied orbitals :                      9
 

 automatic virtual orbital shift switched on 
      shift if e(lumo)-e(homo) < 0.10000000    


          ------------------------
          nuclear repulsion energy  :   42.0379135714    
          ------------------------


         -----------------
         -S,T+V- integrals
         -----------------

 1e-integrals will be neglected if expon. factor < 0.106094E-13
 
   Difference densities algorithm switched on.
   The maximal number of linear combinations of
   difference densities is                    20 .

 DIIS switched on: error vector is FDS-SDF
 Max. Iterations for DIIS is     :   5
 DIIS matrix (see manual) 
    Scaling factor of diagonals  :  1.200
    threshold for scaling factor :  0.000

 scf convergence criterion : increment of total energy < .1000000D-08
                  and increment of one-electron energy < .1000000D-05

  MOs are in ASCII format !


 reading orbital data $scfmo  from file mos
 orbital characterization : scfconv=9

 DSCF restart information will be dumped onto file mos

 
                                              current damping :  0.700
 ITERATION  ENERGY          1e-ENERGY        2e-ENERGY     RMS[dD(SAO)]   TOL
   1  -95.241432188534    -211.65385627     74.374510511    0.000D+00 0.106D-12
          max. resid. norm for Fia-block=  1.106D-01 for orbital      1a         
          max. resid. fock norm         =  2.547D-01 for orbital    259a         
          Delta Eig. =    26.0517790084 eV 
 
                                              current damping :  0.650
 ITERATION  ENERGY          1e-ENERGY        2e-ENERGY     RMS[dD(SAO)]   TOL
   2  -95.256826376107    -211.42883053     74.134090581    0.971D-03 0.683D-13
          Norm of current diis error: 0.37667    
          max. resid. norm for Fia-block=  5.179D-02 for orbital      1a         
          max. resid. fock norm         =  9.247D-02 for orbital    260a         
          Delta Eig. =    11.1619516207 eV 
 
                                              current damping :  0.600
 ITERATION  ENERGY          1e-ENERGY        2e-ENERGY     RMS[dD(SAO)]   TOL
   3  -95.259886140960    -211.48994850     74.192148788    0.491D-03 0.509D-13
          Norm of current diis error: 0.16652    
          max. resid. norm for Fia-block=  2.125D-02 for orbital      1a         
          max. resid. fock norm         =  3.789D-02 for orbital    259a         
          Delta Eig. =     4.4831520391 eV 
 
                                              current damping :  0.650
 ITERATION  ENERGY          1e-ENERGY        2e-ENERGY     RMS[dD(SAO)]   TOL
   4  -95.260502641538    -211.46822635     74.169810137    0.210D-03 0.448D-13
          Norm of current diis error: 0.65643E-01
          max. resid. norm for Fia-block=  8.104D-03 for orbital      1a         
          max. resid. fock norm         =  1.383D-02 for orbital    259a         
          Delta Eig. =     1.6182508819 eV 
 
                                              current damping :  0.500
 ITERATION  ENERGY          1e-ENERGY        2e-ENERGY     RMS[dD(SAO)]   TOL
   5  -95.260601114861    -211.46664524     74.168130558    0.844D-04 0.413D-13
          Norm of current diis error: 0.27761E-01
          max. resid. norm for Fia-block=  3.166D-03 for orbital      1a         
          max. resid. fock norm         =  5.458D-03 for orbital    260a         
 mo-orthogonalization: Cholesky decomposition
          Delta Eig. =     0.7008717603 eV 
 
                                              current damping :  0.350
 ITERATION  ENERGY          1e-ENERGY        2e-ENERGY     RMS[dD(SAO)]   TOL
   6  -95.260620445589    -211.46512633     74.166592314    0.394D-04 0.383D-13
          Norm of current diis error: 0.10278E-01
          max. resid. norm for Fia-block=  1.044D-03 for orbital      1a         
          max. resid. fock norm         =  1.819D-03 for orbital    260a         
          Delta Eig. =     0.2596242301 eV 
 
                                              current damping :  0.200
 ITERATION  ENERGY          1e-ENERGY        2e-ENERGY     RMS[dD(SAO)]   TOL
   7  -95.260623468697    -211.46450765     74.165970609    0.166D-04 0.354D-13
          Norm of current diis error: 0.32308E-02
          max. resid. norm for Fia-block=  2.889D-04 for orbital      7a         
          max. resid. fock norm         =  4.719D-04 for orbital    260a         
          Delta Eig. =     0.0756971205 eV 
 
                                              current damping :  0.050
 ITERATION  ENERGY          1e-ENERGY        2e-ENERGY     RMS[dD(SAO)]   TOL
   8  -95.260623831595    -211.46434526     74.165807857    0.614D-05 0.329D-13
          Norm of current diis error: 0.85573E-03
          max. resid. norm for Fia-block=  7.595D-05 for orbital      5a         
          max. resid. fock norm         =  8.039D-05 for orbital    260a         
          Delta Eig. =     0.0145992461 eV 
 
                                              current damping :  0.050
 ITERATION  ENERGY          1e-ENERGY        2e-ENERGY     RMS[dD(SAO)]   TOL
   9  -95.260623866111    -211.46424321     74.165705774    0.201D-05 0.307D-13
          Norm of current diis error: 0.19608E-03
          max. resid. norm for Fia-block=  2.318D-05 for orbital      9a         
          max. resid. fock norm         =  2.344D-05 for orbital      9a         
          Delta Eig. =     0.0007680476 eV 
 
                                              current damping :  0.050
 ITERATION  ENERGY          1e-ENERGY        2e-ENERGY     RMS[dD(SAO)]   TOL
  10  -95.260623868586    -211.46424236     74.165704916    0.538D-06 0.292D-13
          Norm of current diis error: 0.53440E-04
          max. resid. norm for Fia-block=  7.886D-06 for orbital      9a         
          max. resid. fock norm         =  8.006D-06 for orbital      9a         
 mo-orthogonalization: Cholesky decomposition
          Delta Eig. =     0.0000813820 eV 
 
                                              current damping :  0.050
 ITERATION  ENERGY          1e-ENERGY        2e-ENERGY     RMS[dD(SAO)]   TOL
  11  -95.260623868801    -211.46422860     74.165691160    0.163D-06 0.302D-13
          Norm of current diis error: 0.14054E-04
          max. resid. norm for Fia-block=  2.419D-06 for orbital      9a         
          max. resid. fock norm         =  2.462D-06 for orbital      9a         
          Delta Eig. =     0.0000478695 eV 

 DENSITY CONVERGED !

 
                                              current damping :  0.100
 ITERATION  ENERGY          1e-ENERGY        2e-ENERGY     RMS[dD(SAO)]   TOL
  12  -95.260623868818    -211.46423457     74.165697132    0.415D-07 0.303D-13
          Norm of current diis error: 0.45475E-05
          max. resid. norm for Fia-block=  6.337D-07 for orbital      9a         
          max. resid. fock norm         =  6.453D-07 for orbital      9a         
          Delta Eig. =     0.0000209225 eV 

 ENERGY & DENSITY CONVERGED !

 
                                              current damping :  0.150
 ITERATION  ENERGY          1e-ENERGY        2e-ENERGY     RMS[dD(SAO)]   TOL
  13  -95.260623868819    -211.46423159     74.165694149    0.925D-08 0.301D-13
          max. resid. norm for Fia-block=  1.914D-07 for orbital      9a         
          max. resid. fock norm         =  1.968D-07 for orbital      9a         

 convergence criteria satisfied after    13 iterations


                  ------------------------------------------ 
                 |  total energy      =    -95.26062386882  |
                  ------------------------------------------ 
                 :  kinetic energy    =     95.16819592039  :
                 :  potential energy  =   -190.42881978920  :
                 :  virial theorem    =      1.99902973606  :
                 :  wavefunction norm =      1.00000000000  :
                  .......................................... 


 orbitals $scfmo  will be written to file mos

    irrep                  5a          6a          7a          8a          9a   
 eigenvalues H         -0.65962    -0.60327    -0.55457    -0.51644    -0.39363
            eV         -17.9492    -16.4160    -15.0907    -14.0531    -10.7112
 occupation              2.0000      2.0000      2.0000      2.0000      2.0000 

    irrep                 10a         11a         12a         13a         14a   
 eigenvalues H          0.11167     0.14880     0.16661     0.19147     0.20994
            eV           3.0386      4.0490      4.5338      5.2101      5.7128
 
 
 
 
 ==============================================================================
                           electrostatic moments
 ==============================================================================

 reference point for electrostatic moments:    0.00000   0.00000   0.00000

 
              nuc           elec       ->  total
 ------------------------------------------------------------------------------
                          charge      
 ------------------------------------------------------------------------------
          18.000000     -18.000000      -0.000000
 
 ------------------------------------------------------------------------------
                       dipole moment  
 ------------------------------------------------------------------------------
   x      84.425825     -83.859845       0.565980
   y     -15.785141      15.750335      -0.034805
   z      12.288736     -12.280050       0.008687
 
   | dipole moment | =     0.5671 a.u. =     1.4415 debye 
 
 ------------------------------------------------------------------------------
                     quadrupole moment
 ------------------------------------------------------------------------------
  xx     403.850507    -410.350418      -6.499912
  yy      59.501395     -69.397159      -9.895763
  zz      18.910649     -28.281788      -9.371139
  xy     -80.189379      80.859196       0.669817
  xz      58.275713     -58.011278       0.264435
  yz     -14.623652      14.666550       0.042898
 
     1/3  trace=      -8.588938
     anisotropy=       3.403932
 
 ==============================================================================
 


    ------------------------------------------------------------------------
         total  cpu-time :  9 minutes and 23 seconds
         total wall-time :  1 minutes and  8 seconds
    ------------------------------------------------------------------------

   ****  dscf : all done  ****


    2019-04-01 21:43:23.037 

