Using Slurm to start processes with PMI2
STARTING ridft ON 8 PROCESSORS!
RUNNING PROGRAM /beegfs/modfac/apps/TURBOMOLE/7.0_intel_GA/bin/em64t-unknown-linux-gnu_mpi/ridft_mpi.
PLEASE WAIT UNTIL ridft HAS FINISHED.
Look for the output in slave1.output.
  this is node-proc. number 1 running on node c-5-12.local
  the total number of node-proc. spawned is            8
  parallel platform: MPP, or cluster with fast interconnect

 ridft (c-5-12.local) : TURBOMOLE V7.0.2( ) 15 Jan 2016 at 17:47:42
 Copyright (C) 2016 TURBOMOLE GmbH, Karlsruhe


    2016-06-10 11:47:33.550 



                                  r i d f t

                        DFT program with RI approximation 
                                for coulomb part 




                                                 
                                 References:     
                                                 
          TURBOMOLE:                             
              R. Ahlrichs, M. Baer, M. Haeser, H. Horn, and
              C. Koelmel
              Electronic structure calculations on workstation
              computers: the program system TURBOMOLE
              Chem. Phys. Lett. 162: 165 (1989)
          Density Functional:                              
              O. Treutler and R. Ahlrichs                      
              Efficient Molecular Numerical Integration Schemes
              J. Chem. Phys. 102: 346 (1995)                   
          Parallel Version:                                
              Performance of parallel TURBOMOLE for Density    
              Functional Calculations                          
              M. v. Arnim and R. Ahlrichs                      
              J. Comp. Chem. 19: 1746 (1998)                   
          RI-J Method:                                     
              Auxiliary Basis Sets to approximate Coulomb      
              Potentials                                       
              Chem. Phys. Lett. 240: 283 (1995)                
              K. Eichkorn, O. Treutler, H. Oehm, M. Haeser     
              and R. Ahlrichs                                  
              Chem. Phys. Lett. 242: 652 (1995)                
                                                           
              Auxiliary Basis Sets for Main Row Atoms and their
              Use to approximate Coulomb Potentials            
              K. Eichkorn, F. Weigend, O. Treutler and         
              R. Ahlrichs                                      
              Theo. Chem. Acc. 97: 119 (1997)                   
                                                           
              Accurate Coulomb-fitting basis sets for H to Rn 
              F. Weigend                                        
              Phys. Chem. Chem. Phys. 8: 1057 (2006)            
                                                           
          Multipole accelerated RI-J (MARI-J):             
              Fast evaluation of the Coulomb potential for     
              electron densities using multipole accelerated   
              resolution of identity approximation             
              M. Sierka, A. Hogekamp and R. Ahlrichs           
              J. Chem. Phys. 118: 9136 (2003)                  
          RI-JK Method:                                     
              A fully direct RI-HF algorithm: Implementation,
              optimised auxiliary basis sets, demonstration of
              accuracy and efficiency                         
              F. Weigend                                      
              Phys. Chem. Chem. Phys. 4: 4285 (2002)           
          Two-component HF and DFT with spin-orbit coupling:  
              Self-consistent treatment of spin-orbit         
              interactions with efficient Hartree-Fock and    
              density functional methods                      
              M. K. Armbruster, F. Weigend, C. van Wüllen and 
              W. Klopper                                      
              Phys. Chem. Chem. Phys. 10: 1748 (2008)         
          Relativistic all-electron 2c calculations           
              An efficient implementation of two-component    
              relativistic exact-decoupling methods for large 
              molecules                                       
              D. Peng, N. Middendorf, F. Weigend, M. Reiher   
              J. Chem. Phys. 138, 184105 (2013)               
                                         


 


              +--------------------------------------------------+
              |      general information about current run       |
              +--------------------------------------------------+

 

 SCF run will be profiled !


 DENSITY CONVERGENCE CHECK SWITCHED ON !
 SCF CONVERGENCE IF RMS(delta[D]) <     0.1000000000E-06

 TPSS meta-GGA functional
 exchange:    LDA + TPSS
 correlation: LDA (PW) + TPSS
 A DFT calculation using the RI-J approximation will be carried out.
 Allocatable memory for RI due to $ricore (MB):       10000


              +--------------------------------------------------+
              | Atomic coordinate, charge and isotop information |
              +--------------------------------------------------+

                    atomic coordinates            atom    charge  isotop
          5.37744248   -1.46325274   -2.07862316    c      6.000     0
          3.66733481   -0.28338333   -0.32336994    c      6.000     0
          8.94745640    0.29311542    0.09339027    c      6.000     0
          4.69780247    1.19031959    1.67701856    c      6.000     0
          7.27457634    1.46478342    1.82985961    c      6.000     0
          8.04303347   -1.18270400   -1.84153812    c      6.000     0
          3.08554483    2.42769337    3.53216270    n      7.000     0
          4.06423399   -2.74066981   -3.78139868    n      7.000     0
          1.59717763   -2.36162854   -3.10691763    o      8.000     0
          1.31621315   -0.85995767   -0.97341683    n      7.000     0
         10.01530284   -2.64996296   -3.95534797    cl    17.000     0
          0.77949313    2.29407083    3.19187972    o      8.000     0
          4.11616367    3.54291525    5.30899660    o      8.000     0
         10.96385087    0.57485469    0.30209162    h      1.000     0
          8.03451080    2.60855906    3.34882147    h      1.000     0
 
       center of nuclear mass  :    5.27776528   -0.25726803   -0.37634145
       center of nuclear charge:    5.28509005   -0.22160365   -0.32856479

              +--------------------------------------------------+
              |               basis set information              |
              +--------------------------------------------------+

              we will work with the 1s 3p 5d 7f 9g ... basis set
              ...i.e. with spherical basis functions...

   type   atoms  prim   cont   basis
   ---------------------------------------------------------------------------
    c        6     77     57   def2-QZVP   [7s4p3d2f1g|15s8p3d2f1g]
    n        3     77     57   def2-QZVP   [7s4p3d2f1g|15s8p3d2f1g]
    o        3     77     57   def2-QZVP   [7s4p3d2f1g|15s8p3d2f1g]
    cl       1    105     70   def2-QZVP   [9s6p4d2f1g|20s14p4d2f1g]
    h        2     33     30   def2-QZVP   [4s3p2d1f|7s3p2d1f]
   ---------------------------------------------------------------------------
   total:   15   1095    814
   ---------------------------------------------------------------------------

   total number of primitive shells          :  141
   total number of contracted shells         :  246
   total number of cartesian basis functions : 1020
   total number of SCF-basis functions       :  814


 integral neglect threshold       :  0.33E-13
 integral storage threshold THIZE :  0.10E-04
 integral storage threshold THIME :         5

 RI-J AUXILIARY BASIS SET information:

              we will work with the 1s 3p 5d 7f 9g ... basis set
              ...i.e. with spherical basis functions...

   type   atoms  prim   cont   basis
   ---------------------------------------------------------------------------
    c        6     70     49   def2-QZVP   [6s4p3d1f1g|12s5p4d2f1g]
    n        3     70     49   def2-QZVP   [6s4p3d1f1g|12s5p4d2f1g]
    o        3     70     49   def2-QZVP   [6s4p3d1f1g|12s5p4d2f1g]
    cl       1     77     51   def2-QZVP   [8s4p3d1f1g|14s5p5d2f1g]
    h        2     16     11   def2-QZVP   [3s1p1d|5s2p1d]
   ---------------------------------------------------------------------------
   total:   15    949    661
   ---------------------------------------------------------------------------

   total number of primitive shells          :  107
   total number of contracted shells         :  207
   total number of cartesian basis functions :  819
   total number of SCF-basis functions       :  661


 symmetry group of the molecule :   c1 

 the group has the following generators :
   c1(z)

    1 symmetry operations found

 there are 1 real representations :   a   

 maximum number of shells which are related by symmetry :  1


    mo occupation :
   irrep   mo's   occupied
    a      814       50
 
 number of basis functions   :          814
 number of occupied orbitals :           50
 
  
           ------------------
           density functional
           ------------------
 TPSS meta-GGA functional
 exchange:    LDA + TPSS
 correlation: LDA (PW) + TPSS
 grinp -> nfun, dfgga, dfhybrid 
           5 F F
 iterations will be done with small grid
  
 spherical integration : Lebedev's spherical grid
 spherical gridsize    :           5
    i.e. gridpoints    :         590
 value for diffuse not defined
 radial integration    : Chebyshev 2nd kind (scaling 3)
 radial gridsize       :           8
 integration cells     :          15
 partition function    : becke
 partition sharpness   :           3
  

 <rddim> : input of entry tasksize
           from data group '$pardft' failed !

               Default values taken

 <rddim> : input of entry memdiv
           from data group '$pardft' failed !

               Default values taken
  RIDFT: memory allocation for DFT gridpoints
  MEMORY is divided by 1 as DEFAULT
 Each node can hold at most  the            1 -th part
 of the gridpoints    

 biggest AO integral is expected to be    12.165751258
  
           ------------------------
               RI-J - INFORMATION
           ------------------------
 
 
 **************************************************
 *      MEMORY ALLOCATION FOR PARALLEL RI-DFT     *
 **************************************************
 
 
MEMORY FOR (MU NU/ ALPHA), SEQUENTIAL RUN               9997 MByte
 
            DIFFERENCE IN MEMORY NEED:       DIAG./SLAVE  
 
      TOTAL DIFFERENCE :                     31 MByte
 
      difference in xcore:                    4 MByte
      difference in fatmat:                   9 MByte
      getcor calls skipped by slaves:        19 MByte
 
 
           Integral memory available for diagonal.      9997 MByte
 
           Integral memory available for slave             0 MByte
 
         MEMORY FOR (MU NU/ ALPHA) ON DIAGONALIZER      9997 MByte
 
         MEMORY FOR (MU NU/ ALPHA) ON ONE SLAVE            0 MByte
 
         TOTAL MEMORY FOR (MU NU/ ALPHA),ALL NODES      9997 MByte
 
 Contributions to RI integral batches: 
  neglected integral batches:        8055
  direct contribution:                  0
  memory contribution:       22326
 Memory core needed for (P|Q) and Cholesky      4 MByte
 Memory core minimum needed except of (P|Q)     4 MByte
 Total minimum memory core needed (sum)         7 MByte
  
 ****************************************
 Memory allocated for RI-J 10004 MByte
 ****************************************
                                            

          ------------------------
          nuclear repulsion energy  :   847.156780140    
          ------------------------

 
          -----------------
          -S integrals
          -----------------

 1e-integrals will be neglected if expon. factor < 0.327643E-14
 
          -----------------
          -T+V integrals
          -----------------

 1e-integrals will be neglected if expon. factor < 0.327643E-14
 Difference densities >>NOT<< switched on in parallel ridft!

 automatic virtual orbital shift switched on 
      shift if e(lumo)-e(homo) < 0.10000000    


 DIIS switched on: error vector is FDS-SDF
 Max. Iterations for DIIS is     :   4
 DIIS matrix (see manual) 
    Scaling factor of diagonals  :  1.200
    threshold for scaling factor :  0.000

 scf convergence criterion : increment of total energy < .1000000D-08
                  and increment of one-electron energy < .1000000D-05


 <geterg> : there is no data group $energy 

  MOs are in ASCII format !


 reading orbital data $scfmo  from file mos . 

 orbital characterization : expanded
 
 mo provided and orthogonalized by Cholesky decomposition

 DSCF restart information will be dumped onto file mos


 Starting SCF iterations


 ITERATION  ENERGY          1e-ENERGY        2e-ENERGY     RMS[dD(SAO)]   TOL
   1  -1077.4274673005    -3139.0710435     1214.4867961    0.000D+00 0.327D-13
                            Exc = -107.300053754     Coul =  1321.78684983    
                              N = 100.00014529    
                            current damping = 0.700
 
          max. resid. norm for Fia-block=  8.355D-01 for orbital     20a         
          max. resid. fock norm         =  1.040D+02 for orbital    723a         

 ITERATION  ENERGY          1e-ENERGY        2e-ENERGY     RMS[dD(SAO)]   TOL
   2  -1079.7663918160    -3154.8622198     1227.9390478    0.139D-01 0.327D-13
                            Exc = -107.688063435     Coul =  1335.62711124    
                              N = 100.00011866    
                            current damping = 0.650
 
          Norm of current diis error:  3.8218    
          max. resid. norm for Fia-block=  1.502D-01 for orbital     18a         
          max. resid. fock norm         =  4.625D-01 for orbital    725a         

 ITERATION  ENERGY          1e-ENERGY        2e-ENERGY     RMS[dD(SAO)]   TOL
   3  -1080.0718406701    -3159.0464188     1231.8177980    0.510D-02 0.327D-13
                            Exc = -108.036324803     Coul =  1339.85412280    
                              N = 100.00010366    
                            current damping = 0.550
 
          Norm of current diis error:  1.8661    
          max. resid. norm for Fia-block=  6.212D-02 for orbital     41a         
          max. resid. fock norm         =  1.021D-01 for orbital    711a         

 ITERATION  ENERGY          1e-ENERGY        2e-ENERGY     RMS[dD(SAO)]   TOL
   4  -1080.1796681004    -3160.0547719     1232.7183236    0.216D-02 0.327D-13
                            Exc = -107.967469815     Coul =  1340.68579342    
                              N = 100.00010020    
                            current damping = 0.450
 
          Norm of current diis error: 0.81153    
          max. resid. norm for Fia-block=  3.852D-02 for orbital     18a         
          max. resid. fock norm         =  7.522D-02 for orbital    724a         

 ITERATION  ENERGY          1e-ENERGY        2e-ENERGY     RMS[dD(SAO)]   TOL
   5  -1080.1995210198    -3160.7355858     1233.3792846    0.102D-02 0.327D-13
                            Exc = -108.082256059     Coul =  1341.46154069    
                              N = 100.00009634    
                            current damping = 0.350
 
          Norm of current diis error: 0.48584    
          max. resid. norm for Fia-block=  1.201D-02 for orbital     36a         
          max. resid. fock norm         =  3.088D-02 for orbital    803a         
          mo-orthogonalization: Cholesky decomposition

 ITERATION  ENERGY          1e-ENERGY        2e-ENERGY     RMS[dD(SAO)]   TOL
   6  -1080.2054844049    -3160.9651816     1233.6029170    0.494D-03 0.327D-13
                            Exc = -108.075754400     Coul =  1341.67867142    
                              N = 100.00009601    
                            current damping = 0.200
 
          Norm of current diis error: 0.22411    
          max. resid. norm for Fia-block=  6.023D-03 for orbital     49a         
          max. resid. fock norm         =  1.367D-02 for orbital    803a         

 ITERATION  ENERGY          1e-ENERGY        2e-ENERGY     RMS[dD(SAO)]   TOL
   7  -1080.2053341287    -3161.0365967     1233.6744824    0.210D-03 0.327D-13
                            Exc = -108.065994012     Coul =  1341.74047640    
                              N = 100.00009531    
                            current damping = 0.250
 
          Norm of current diis error: 0.24114    
          max. resid. norm for Fia-block=  3.402D-03 for orbital     44a         
          max. resid. fock norm         =  1.014D-02 for orbital    808a         

 ITERATION  ENERGY          1e-ENERGY        2e-ENERGY     RMS[dD(SAO)]   TOL
   8  -1080.2068796665    -3160.9729627     1233.6093029    0.706D-04 0.327D-13
                            Exc = -108.065345857     Coul =  1341.67464876    
                              N = 100.00009545    
                            current damping = 0.300
 
          Norm of current diis error: 0.10206    
          max. resid. norm for Fia-block=  2.035D-03 for orbital     44a         
          max. resid. fock norm         =  5.820D-03 for orbital    809a         

 ITERATION  ENERGY          1e-ENERGY        2e-ENERGY     RMS[dD(SAO)]   TOL
   9  -1080.2070811730    -3160.9610249     1233.5971636    0.341D-04 0.327D-13
                            Exc = -108.074254230     Coul =  1341.67141781    
                              N = 100.00009534    
                            current damping = 0.150
 
          Norm of current diis error: 0.52972E-01
          max. resid. norm for Fia-block=  1.240D-03 for orbital     47a         
          max. resid. fock norm         =  3.147D-03 for orbital    809a         

 ITERATION  ENERGY          1e-ENERGY        2e-ENERGY     RMS[dD(SAO)]   TOL
  10  -1080.2071421613    -3160.9854107     1233.6214884    0.191D-04 0.327D-13
                            Exc = -108.071448111     Coul =  1341.69293655    
                              N = 100.00009541    
                            current damping = 0.200
 
          Norm of current diis error: 0.27583E-01
          max. resid. norm for Fia-block=  1.112D-03 for orbital     47a         
          max. resid. fock norm         =  2.423D-03 for orbital    813a         
          mo-orthogonalization: Cholesky decomposition

 ITERATION  ENERGY          1e-ENERGY        2e-ENERGY     RMS[dD(SAO)]   TOL
  11  -1080.2071367281    -3160.9796322     1233.6157154    0.140D-04 0.327D-13
                            Exc = -108.072437037     Coul =  1341.68815239    
                              N = 100.00009542    
                            current damping = 0.250
 
          Norm of current diis error: 0.29455E-01
          max. resid. norm for Fia-block=  5.460D-04 for orbital     47a         
          max. resid. fock norm         =  1.200D-03 for orbital    813a         

 ITERATION  ENERGY          1e-ENERGY        2e-ENERGY     RMS[dD(SAO)]   TOL
  12  -1080.2071643026    -3160.9700576     1233.6061132    0.709D-05 0.327D-13
                            Exc = -108.072414454     Coul =  1341.67852763    
                              N = 100.00009539    
                            current damping = 0.100
 
          Norm of current diis error: 0.89466E-02
          max. resid. norm for Fia-block=  2.477D-04 for orbital     33a         
          max. resid. fock norm         =  5.339D-04 for orbital    810a         

 ITERATION  ENERGY          1e-ENERGY        2e-ENERGY     RMS[dD(SAO)]   TOL
  13  -1080.2071638641    -3160.9779347     1233.6139907    0.414D-05 0.327D-13
                            Exc = -108.071561149     Coul =  1341.68555186    
                              N = 100.00009539    
                            current damping = 0.150
 
          Norm of current diis error: 0.92468E-02
          max. resid. norm for Fia-block=  1.138D-04 for orbital     47a         
          max. resid. fock norm         =  2.438D-04 for orbital    808a         

 ITERATION  ENERGY          1e-ENERGY        2e-ENERGY     RMS[dD(SAO)]   TOL
  14  -1080.2071662837    -3160.9745830     1233.6106366    0.249D-05 0.327D-13
                            Exc = -108.072070000     Coul =  1341.68270656    
                              N = 100.00009539    
                            current damping = 0.200
 
          Norm of current diis error: 0.30076E-02
          max. resid. norm for Fia-block=  9.733D-05 for orbital     44a         
          max. resid. fock norm         =  1.965D-04 for orbital    808a         

 ITERATION  ENERGY          1e-ENERGY        2e-ENERGY     RMS[dD(SAO)]   TOL
  15  -1080.2071661046    -3160.9757621     1233.6118158    0.136D-05 0.327D-13
                            Exc = -108.071908283     Coul =  1341.68372411    
                              N = 100.00009539    
                            current damping = 0.250
 
          Norm of current diis error: 0.36877E-02
          max. resid. norm for Fia-block=  5.443D-05 for orbital     47a         
          max. resid. fock norm         =  1.157D-04 for orbital    813a         
          mo-orthogonalization: Cholesky decomposition

 ITERATION  ENERGY          1e-ENERGY        2e-ENERGY     RMS[dD(SAO)]   TOL
  16  -1080.2071664980    -3160.9750653     1233.6111187    0.819D-06 0.327D-13
                            Exc = -108.072066871     Coul =  1341.68318553    
                              N = 100.00009539    
                            current damping = 0.300
 
          Norm of current diis error: 0.98548E-03
          max. resid. norm for Fia-block=  2.029D-05 for orbital     34a         
          max. resid. fock norm         =  3.961D-05 for orbital    809a         

 ITERATION  ENERGY          1e-ENERGY        2e-ENERGY     RMS[dD(SAO)]   TOL
  17  -1080.2071665198    -3160.9742588     1233.6103121    0.282D-06 0.327D-13
                            Exc = -108.072053589     Coul =  1341.68236573    
                              N = 100.00009539    
                            current damping = 0.150
 
          Norm of current diis error: 0.39440E-03
          max. resid. norm for Fia-block=  1.099D-05 for orbital     45a         
          max. resid. fock norm         =  2.499D-05 for orbital    812a         

 ITERATION  ENERGY          1e-ENERGY        2e-ENERGY     RMS[dD(SAO)]   TOL
  18  -1080.2071665189    -3160.9746279     1233.6106812    0.172D-06 0.327D-13
                            Exc = -108.072092661     Coul =  1341.68277388    
                              N = 100.00009539    
                            current damping = 0.200
 
          Norm of current diis error: 0.42816E-03
          max. resid. norm for Fia-block=  6.937D-06 for orbital     45a         
          max. resid. fock norm         =  1.765D-05 for orbital    808a         

 ITERATION  ENERGY          1e-ENERGY        2e-ENERGY     RMS[dD(SAO)]   TOL
  19  -1080.2071665213    -3160.9747212     1233.6107746    0.129D-06 0.327D-13
                            Exc = -108.072065171     Coul =  1341.68283975    
                              N = 100.00009539    
                            current damping = 0.050
 
          Norm of current diis error: 0.31215E-03
          max. resid. norm for Fia-block=  4.469D-06 for orbital     44a         
          max. resid. fock norm         =  1.386D-05 for orbital    808a         
          irrep a   : virtual orbitals shifted by    0.00144

 ITERATION  ENERGY          1e-ENERGY        2e-ENERGY     RMS[dD(SAO)]   TOL
  20  -1080.2071665240    -3160.9745616     1233.6106149    0.108D-06 0.327D-13
                            Exc = -108.072071780     Coul =  1341.68268670    
                              N = 100.00009539    
                            current damping = 0.100
 
          Norm of current diis error: 0.93445E-04
          max. resid. norm for Fia-block=  2.194D-06 for orbital     44a         
          max. resid. fock norm         =  6.426D-06 for orbital    808a         
          mo-orthogonalization: Cholesky decomposition

 DENSITY CONVERGED !


 ITERATION  ENERGY          1e-ENERGY        2e-ENERGY     RMS[dD(SAO)]   TOL
  21  -1080.2071665240    -3160.9745311     1233.6105845    0.453D-07 0.327D-13
                            Exc = -108.072073841     Coul =  1341.68265830    
                              N = 100.00009539    
                            current damping = 0.050
 
          Norm of current diis error: 0.96212E-04
          max. resid. norm for Fia-block=  1.461D-06 for orbital     33a         
          max. resid. fock norm         =  3.162D-06 for orbital    809a         
          irrep a   : virtual orbitals shifted by    0.00144

 DENSITY CONVERGED !


 ITERATION  ENERGY          1e-ENERGY        2e-ENERGY     RMS[dD(SAO)]   TOL
  22  -1080.2071665243    -3160.9745521     1233.6106055    0.269D-07 0.327D-13
                            Exc = -108.072067020     Coul =  1341.68267248    
                              N = 100.00009539    
                            current damping = 0.100
 
          Norm of current diis error: 0.33498E-04
          max. resid. norm for Fia-block=  9.192D-07 for orbital     47a         
          max. resid. fock norm         =  1.921D-06 for orbital    813a         

 ENERGY & DENSITY CONVERGED !


 ITERATION  ENERGY          1e-ENERGY        2e-ENERGY     RMS[dD(SAO)]   TOL
  23  -1080.2068889336    -3160.9745631     1233.6108940    0.144D-07 0.327D-13
                            Exc = -108.071793522     Coul =  1341.68268755    
                              N = 99.999995178    
                            current damping = 0.050
 
          Norm of current diis error: 0.28376E-04
          max. resid. norm for Fia-block=  6.979D-07 for orbital     47a         
          max. resid. fock norm         =  1.564D-06 for orbital    813a         

 End of SCF iterations

   convergence criteria satisfied after   23 iterations


                  ------------------------------------------ 
                 |  total energy      =  -1080.20688893357  |
                  ------------------------------------------ 
                 :  kinetic energy    =   1077.15226642833  :
                 :  potential energy  =  -2157.35915536190  :
                 :  virial theorem    =      1.99717218754  :
                 :  wavefunction norm =      1.00000000000  :
                  .......................................... 


 <geterg> : there is no data group $energy 


 <skperg> : $end is missing 


 orbitals $scfmo  will be written to file mos

    irrep                 46a         47a         48a         49a         50a   
 eigenvalues H         -0.30715    -0.29272    -0.28269    -0.26374    -0.25963
            eV          -8.3581     -7.9653     -7.6925     -7.1769     -7.0650
 occupation              2.0000      2.0000      2.0000      2.0000      2.0000 

    irrep                 51a         52a         53a         54a         55a   
 eigenvalues H         -0.16577    -0.11933    -0.06938    -0.04981    -0.04171
            eV          -4.5108     -3.2472     -1.8880     -1.3553     -1.1351
 
 
 ! grave: sending quit signal to master process
 
 
 
 
 ==============================================================================
                           electrostatic moments
 ==============================================================================

 reference point for electrostatic moments:    0.00000   0.00000   0.00000

 
              nuc           elec       ->  total
 ------------------------------------------------------------------------------
                          charge      
 ------------------------------------------------------------------------------
         100.000000    -100.000000       0.000000
 
 ------------------------------------------------------------------------------
                       dipole moment  
 ------------------------------------------------------------------------------
   x     528.509005    -526.615241       1.893764
   y     -22.160365      22.026079      -0.134286
   z     -32.856479      32.520530      -0.335950
 
   | dipole moment | =     1.9280 a.u. =     4.9005 debye 
 
 ------------------------------------------------------------------------------
                     quadrupole moment
 ------------------------------------------------------------------------------
  xx    3817.788891   -3858.360053     -40.571162
  yy     456.275472    -516.701810     -60.426339
  zz     939.453762   -1004.075956     -64.622193
  xy    -353.885885     355.430842       1.544957
  xz    -559.348433     560.459125       1.110692
  yz     653.368314    -658.393466      -5.025152
 
     1/3  trace=     -55.206565
     anisotropy=      24.119717
 
 ==============================================================================
 

    ridft profiling
  --------------------------------------------------------------------
             module   cpu total (s)       %  wall total (s)       %

               RIDFT           452.3  100.00           452.0  100.00
         Ridft_b_scf            12.5    2.77            12.5    2.77
        b_scf_prelim             0.0    0.00             0.0    0.00
        b_scf_molinp             0.0    0.01             0.0    0.01
         b_scf_init0             0.0    0.00             0.0    0.00
        b_scf_auxbas             0.0    0.00             0.0    0.00
      b_scf_symmetry             0.0    0.00             0.0    0.00
         b_scf_cosmo             0.0    0.00             0.0    0.00
        b_scf_params             1.3    0.29             1.3    0.29
          b_scf_ri-j             9.5    2.10             9.5    2.10
    b_scf_ri-j_auxpq             9.5    2.10             9.5    2.10
     ri-j_auxpq_chol             0.1    0.01             0.1    0.01
         b_scf_1elec             0.3    0.06             0.3    0.06
       b_scf_moinput             1.4    0.31             1.4    0.31
     moinput_orthmos             1.3    0.30             1.3    0.30
    b_scf_dft-dstmax             0.0    0.00             0.0    0.00
           Ridft_scf           439.6   97.20           439.3   97.19
          Scf_b_loop             0.0    0.00             0.0    0.00
                noga             0.0    0.00             0.0    0.00
            Scf_loop           439.1   97.09           438.8   97.09
     scf_loop_mkdmat             0.8    0.17             0.8    0.17
       scf_loop_ri-j            14.8    3.26            14.8    3.26
      parlp1.bc.dens             1.2    0.27             1.2    0.27
        parlp1.gs.gp             0.0    0.00             0.0    0.00
        parlp2.bc.gq             0.0    0.00             0.0    0.00
        scf_loop_dft           394.5   87.21           394.2   87.21
      pardft.bc.dens             0.0    0.00             0.0    0.00
        dft_grid_con             0.1    0.03             0.1    0.03
          dft_xcmrhf           389.3   86.07           389.0   86.06
          dft_getval             6.1    1.34             6.1    1.35
          funct2 dst             0.1    0.01             0.1    0.02
      funct2 f2loop1             2.1    0.47             2.1    0.47
      funct2 f2loop2             1.8    0.40             1.9    0.41
          funct2 s+c             1.9    0.41             1.8    0.41
        funct2 cmf_2             1.6    0.36             1.6    0.35
          dft_mkdens           189.7   41.94           189.6   41.95
        dft_mgga-fun             0.4    0.08             0.4    0.08
          dft_mkfock           192.9   42.65           192.8   42.65
     pardft.red.fock            25.7    5.68            25.7    5.68
     scf_loop_energy             0.0    0.00             0.0    0.00
     scf_loop_mkfock             0.0    0.00             0.0    0.00
       scf_loop_diis             9.6    2.13             9.6    2.13
       scf_loop_diag             8.5    1.88             8.5    1.88
         diag_tritrn             2.0    0.44             2.0    0.44
          diag_rdiag             6.5    1.43             6.4    1.43
     scf_loop_modump             9.1    2.00             9.1    2.00
      scf_loop_ortho             1.6    0.35             1.6    0.35
          Scf_a_loop             0.5    0.11             0.5    0.11
         Ridft_a_scf             0.1    0.03             0.1    0.03
         a_scf_fanal             0.1    0.03             0.1    0.03
 


    ------------------------------------------------------------------------
         total  cpu-time :  7 minutes and 33 seconds
         total wall-time :  7 minutes and 33 seconds
    ------------------------------------------------------------------------


   ****  ridft : all done  ****


    2016-06-10 11:55:06.502 

