
 eiger (gplogin1.local) : TURBOMOLE V7.2 ( 21285 ) 30 Jun 2017 at 11:51:10
 Copyright (C) 2017 TURBOMOLE GmbH, Karlsruhe


    2017-11-01 16:28:17.892 

                                                                                
  
 HOMO-LUMO Separation
   HOMO:   102.   102 a     -0.14362343 H =     -3.90819 eV
   LUMO:   103.   103 a     -0.06034727 H =     -1.64213 eV
   Gap :                    +0.08327616 H =     +2.26606 eV
 
Number of MOs=   1232, Electrons=    204.00, Symmetry: c1   
 
   Nr.   Orbital    Occupation       Energy
  119.   119 a                     +0.033040 H =        +0.899 eV
  118.   118 a                     +0.033017 H =        +0.898 eV
  117.   117 a                     +0.025190 H =        +0.685 eV
  116.   116 a                     +0.015070 H =        +0.410 eV
  115.   115 a                     +0.011015 H =        +0.300 eV
  114.   114 a                     +0.011005 H =        +0.299 eV
  113.   113 a                     +0.009135 H =        +0.249 eV
  112.   112 a                     +0.009110 H =        +0.248 eV
  111.   111 a                     +0.006705 H =        +0.182 eV
  110.   110 a                     -0.002884 H =        -0.078 eV
  109.   109 a                     -0.008280 H =        -0.225 eV
  108.   108 a                     -0.008281 H =        -0.225 eV
  107.   107 a                     -0.010366 H =        -0.282 eV
  106.   106 a                     -0.022050 H =        -0.600 eV
  105.   105 a                     -0.022071 H =        -0.601 eV
  104.   104 a                     -0.026036 H =        -0.708 eV
  103.   103 a                     -0.060347 H =        -1.642 eV
  102.   102 a        2.000        -0.143623 H =        -3.908 eV
  101.   101 a        2.000        -0.143624 H =        -3.908 eV
  100.   100 a        2.000        -0.143641 H =        -3.909 eV
   99.    99 a        2.000        -0.143642 H =        -3.909 eV
   98.    98 a        2.000        -0.150128 H =        -4.085 eV
   97.    97 a        2.000        -0.150161 H =        -4.086 eV
   96.    96 a        2.000        -0.316255 H =        -8.606 eV
   95.    95 a        2.000        -0.316270 H =        -8.606 eV
   94.    94 a        2.000        -0.329694 H =        -8.971 eV
   93.    93 a        2.000        -0.346775 H =        -9.436 eV
   92.    92 a        2.000        -0.347038 H =        -9.443 eV
   91.    91 a        2.000        -0.347041 H =        -9.443 eV
   90.    90 a        2.000        -0.354001 H =        -9.633 eV
   89.    89 a        2.000        -0.354011 H =        -9.633 eV
   88.    88 a        2.000        -0.380047 H =       -10.342 eV
   87.    87 a        2.000        -0.383513 H =       -10.436 eV


    ------------------------------------------------------------------------
         total  cpu-time :   1.10 seconds
         total wall-time :   1.25 seconds
    ------------------------------------------------------------------------

   ****  eiger : all done  ****


    2017-11-01 16:28:19.133 

