 operating system is UNIX !

 ridft (c-18-412.gp.local) : TURBOMOLE V7.2 ( 21454 ) 4 Oct 2017 at 12:48:15
 Copyright (C) 2017 TURBOMOLE GmbH, Karlsruhe


    2018-05-19 18:10:26.347 



                                  r i d f t

                        DFT program with RI approximation 
                                for coulomb part 




                                                 
                                 References:     
                                                 
          TURBOMOLE:                             
              R. Ahlrichs, M. Baer, M. Haeser, H. Horn, and
              C. Koelmel
              Electronic structure calculations on workstation
              computers: the program system TURBOMOLE
              Chem. Phys. Lett. 162: 165 (1989)
          Density Functional:                              
              O. Treutler and R. Ahlrichs                      
              Efficient Molecular Numerical Integration Schemes
              J. Chem. Phys. 102: 346 (1995)                   
          Parallel Version:                                
              Performance of parallel TURBOMOLE for Density    
              Functional Calculations                          
              M. v. Arnim and R. Ahlrichs                      
              J. Comp. Chem. 19: 1746 (1998)                   
          RI-J Method:                                     
              Auxiliary Basis Sets to approximate Coulomb      
              Potentials                                       
              Chem. Phys. Lett. 240: 283 (1995)                
              K. Eichkorn, O. Treutler, H. Oehm, M. Haeser     
              and R. Ahlrichs                                  
              Chem. Phys. Lett. 242: 652 (1995)                
                                                           
              Auxiliary Basis Sets for Main Row Atoms and their
              Use to approximate Coulomb Potentials            
              K. Eichkorn, F. Weigend, O. Treutler and         
              R. Ahlrichs                                      
              Theo. Chem. Acc. 97: 119 (1997)                   
                                                           
              Accurate Coulomb-fitting basis sets for H to Rn 
              F. Weigend                                        
              Phys. Chem. Chem. Phys. 8: 1057 (2006)            
                                                           
          Multipole accelerated RI-J (MARI-J):             
              Fast evaluation of the Coulomb potential for     
              electron densities using multipole accelerated   
              resolution of identity approximation             
              M. Sierka, A. Hogekamp and R. Ahlrichs           
              J. Chem. Phys. 118: 9136 (2003)                  
          RI-JK Method:                                     
              A fully direct RI-HF algorithm: Implementation,
              optimised auxiliary basis sets, demonstration of
              accuracy and efficiency                         
              F. Weigend                                      
              Phys. Chem. Chem. Phys. 4: 4285 (2002)           
          Two-component HF and DFT with spin-orbit coupling:  
              Self-consistent treatment of spin-orbit         
              interactions with efficient Hartree-Fock and    
              density functional methods                      
              M. K. Armbruster, F. Weigend, C. van Wüllen and 
              W. Klopper                                      
              Phys. Chem. Chem. Phys. 10: 1748 (2008)         
          Relativistic all-electron 2c calculations           
              An efficient implementation of two-component    
              relativistic exact-decoupling methods for large 
              molecules                                       
              D. Peng, N. Middendorf, F. Weigend, M. Reiher   
              J. Chem. Phys. 138, 184105 (2013)               
                                         




              +--------------------------------------------------+
              |      general information about current run       |
              +--------------------------------------------------+

 
 A HF calculation using the RI-JK approximation will be carried out.
 Allocatable memory for RI due to $ricore (MB):                   500


              +--------------------------------------------------+
              | Atomic coordinate, charge and isotop information |
              +--------------------------------------------------+

                    atomic coordinates            atom    charge  isotop
          4.26490694    5.08355208   -0.28218770    c      6.000     0
          4.50040171    5.86056349   -2.17010788    h      1.000     0
          5.22218810    6.29485245    1.07422847    h      1.000     0
          2.24968077    5.03341854    0.13056898    h      1.000     0
          5.23243101    2.40430275   -0.27785261    c      6.000     0
          4.36319500    0.76829801   -1.67469019    o      8.000     0
          7.09661366    1.88834639    1.40840805    n      7.000     0
          7.85205251    3.31496258    2.40118088    h      1.000     0
          8.20861419   -0.60531835    1.55486101    c      6.000     0
          6.71917625   -2.00622930    1.37907756    h      1.000     0
          9.57159765   -0.93034250    0.04583080    h      1.000     0
          9.14337387   -0.82427749    3.36888382    h      1.000     0
 
       center of nuclear mass  :    5.84848047    1.89184941    0.15269598
       center of nuclear charge:    5.90190098    1.93507439    0.21649804

              +--------------------------------------------------+
              |               basis set information              |
              +--------------------------------------------------+

              we will work with the 1s 3p 5d 7f 9g ... basis set
              ...i.e. with spherical basis functions...

   type   atoms  prim   cont   basis
   ---------------------------------------------------------------------------
    c        3     77     57   def2-QZVP   [7s4p3d2f1g|15s8p3d2f1g]
    h        7     33     30   def2-QZVP   [4s3p2d1f|7s3p2d1f]
    o        1     77     57   def2-QZVP   [7s4p3d2f1g|15s8p3d2f1g]
    n        1     77     57   def2-QZVP   [7s4p3d2f1g|15s8p3d2f1g]
   ---------------------------------------------------------------------------
   total:   12    616    495
   ---------------------------------------------------------------------------

   total number of primitive shells          :  100
   total number of contracted shells         :  155
   total number of cartesian basis functions :  605
   total number of SCF-basis functions       :  495


 integral neglect threshold       :  0.55E-13
 integral storage threshold THIZE :  0.10E-04
 integral storage threshold THIME :         5

 RI-JK AUXILIARY BASIS SET information:

              we will work with the 1s 3p 5d 7f 9g ... basis set
              ...i.e. with spherical basis functions...

   type   atoms  prim   cont   basis
   ---------------------------------------------------------------------------
    c        3     97     75   def2-QZVP   [10s8p5d1f1g|14s10p6d2f1g]
    h        7     20     18   def2-QZVP   [2s2p2d|4s2p2d]
    o        1     97     77   def2-QZVP   [10s8p4d2f1g|14s10p6d2f1g]
    n        1     97     77   def2-QZVP   [10s8p4d2f1g|14s10p6d2f1g]
   ---------------------------------------------------------------------------
   total:   12    625    505
   ---------------------------------------------------------------------------

   total number of primitive shells          :  107
   total number of contracted shells         :  167
   total number of cartesian basis functions :  593
   total number of SCF-basis functions       :  505


 symmetry group of the molecule :   c1 

 the group has the following generators :
   c1(z)

    1 symmetry operations found

 there are 1 real representations :   a   

 maximum number of shells which are related by symmetry :  1


    mo occupation :
   irrep   mo's   occupied
    a      495       20
 
 number of basis functions   :                    495
 number of occupied orbitals :                     20
 

 biggest AO integral is expected to be     6.990327543
  
           ------------------------
               RI-JK - INFORMATION
           ------------------------
 Contributions to RI integral batches: 
  neglected integral batches:                  1552
  direct contribution:                         8322
  memory contribution:                  2216
 Memory core needed for (P|Q) and Cholesky      2 MByte
 Memory core minimum needed except of (P|Q)     1 MByte
 Total minimum memory core needed (sum)         3 MByte
  
 ****************************************
 Memory allocated for RI-J    41 MByte
 ****************************************
                                            
 total memory allocated for calculation of  (Q|P)**(-1/2) :    3 MiB

  forming (P|Q)**(-1/2) 
 eigenvalues of original matrix 
 smallest =0.1753939108198E-06  largest = 28.06393207146    
  The symmetry information takes                      1  MB

          ------------------------
          nuclear repulsion energy  :   180.722114561    
          ------------------------


         -----------------
         -S,T+V- integrals
         -----------------

 1e-integrals will be neglected if expon. factor < 0.552390E-14
 
   Difference densities algorithm switched on.
   The maximal number of linear combinations of
   difference densities is                    20 .

 DIIS switched on: error vector is FDS-SDF
 Max. Iterations for DIIS is     :   5
 DIIS matrix (see manual) 
    Scaling factor of diagonals  :  1.200
    threshold for scaling factor :  0.000

 scf convergence criterion : increment of total energy < .1000000D-08
                  and increment of one-electron energy < .1000000D-05

  MOs are in ASCII format !


 automatic virtual orbital shift switched on 
      shift if e(lumo)-e(homo) < 0.10000000    


 reading orbital data $scfmo  from file mos
 orbital characterization : scfconv=9

 DSCF restart information will be dumped onto file mos


 Starting SCF iterations

 
 BLOCKING OF MOS FOR RI-K
 
 
 occupied MOs partitioned into blocks of maximum length 20
 this requires 47 MiB core memory.
 
            MULTIPLE PASS Statistics 
 ----------------------------------------------------
  pass       irrep     lambda      batch : MO  to  MO
 ----------------------------------------------------
   1       1  ->  1    1  -> 20             1  ->  20



 ITERATION  ENERGY          1e-ENERGY        2e-ENERGY     NORM[dD(SAO)]  TOL
   1  -247.07668816441    -694.60823983     266.80943710    0.000D+00 0.551D-13
                           RI-K = -32.9118430040     Coul =  299.721280107    
                            current damping = 0.700
 
          max. resid. norm for Fia-block=  1.170D-01 for orbital      1a         
          max. resid. fock norm         =  6.805D-01 for orbital    490a         

 End of SCF iterations

   convergence criteria cannot be satisfied within     1 iterations !


                  ------------------------------------------ 
                 |  total energy      =   -247.07668816441  |
                  ------------------------------------------ 
                 :  kinetic energy    =    247.69371374310  :
                 :  potential energy  =   -494.77040190751  :
                 :  virial theorem    =      2.00249730391  :
                 :  wavefunction norm =      1.00000000000  :
                  .......................................... 


 ATTENTION : $energy will not be updated since 
 this calculation did not converge (sob) 

 A POSSIBLE REASON MAY BE THAT ...
 - THE GEOMETRY IS FAR FROM BEING REASONABLE

    irrep                 16a         17a         18a         19a         20a   
 eigenvalues H         -0.47044    -0.46148    -0.41959    -0.33139    -0.31767
            eV         -12.8014    -12.5577    -11.4178     -9.0176     -8.6444
 occupation              2.0000      2.0000      2.0000      2.0000      2.0000 

    irrep                 21a         22a         23a         24a         25a   
 eigenvalues H          0.05321     0.08313     0.09595     0.10497     0.12768
            eV           1.4479      2.2622      2.6111      2.8565      3.4743
 
 
 
 
 ==============================================================================
                           electrostatic moments
 ==============================================================================

 reference point for electrostatic moments:    0.00000   0.00000   0.00000

 
              nuc           elec       ->  total
 ------------------------------------------------------------------------------
                          charge      
 ------------------------------------------------------------------------------
          40.000000     -40.000000      -0.000000
 
 ------------------------------------------------------------------------------
                       dipole moment  
 ------------------------------------------------------------------------------
   x     236.076039    -235.215434       0.860605
   y      77.402975     -76.526055       0.876921
   z       8.659922      -7.588333       1.071589
 
   | dipole moment | =     1.6303 a.u. =     4.1439 debye 
 
 ------------------------------------------------------------------------------
                     quadrupole moment
 ------------------------------------------------------------------------------
  xx    1517.132671   -1529.902018     -12.769347
  yy     337.486299    -355.996469     -18.510169
  zz      76.667925    -100.588855     -23.920930
  xy     363.057215    -358.036422       5.020793
  xz     127.643234    -121.501122       6.142111
  yz     -12.864006      13.610179       0.746173
 
     1/3  trace=     -18.400149
     anisotropy=      16.845403
 
 ==============================================================================
 

 ATTENTION: ridft did not converge! 



    ------------------------------------------------------------------------
         total  cpu-time :   6.47 seconds
         total wall-time :   6.53 seconds
    ------------------------------------------------------------------------

   ****  ridft : all done  ****


    2018-05-19 18:10:32.868 

