
 eiger (gplogin2.gp.local) : TURBOMOLE V7.3 ( 22118 ) 1 Jul 2018 at 20:38:15
 Copyright (C) 2018 TURBOMOLE GmbH, Karlsruhe


    2019-05-14 12:32:28.209 

                                                                                
  
Total energy =   -322.8636838859 H =     -8785.5728477 eV
 
 HOMO-LUMO Separation
   HOMO:    26.    26 a     -0.35971180 H =     -9.78826 eV
   LUMO:    27.    27 a     +0.08812664 H =     +2.39805 eV
   Gap :                    +0.44783845 H =    +12.18631 eV
 
Number of MOs=    595, Electrons=     52.00, Symmetry: c1   
 
   Nr.   Orbital    Occupation       Energy
   43.    43 a                     +0.340259 H =        +9.259 eV
   42.    42 a                     +0.331647 H =        +9.025 eV
   41.    41 a                     +0.310484 H =        +8.449 eV
   40.    40 a                     +0.305852 H =        +8.323 eV
   39.    39 a                     +0.302516 H =        +8.232 eV
   38.    38 a                     +0.275799 H =        +7.505 eV
   37.    37 a                     +0.270865 H =        +7.371 eV
   36.    36 a                     +0.254550 H =        +6.927 eV
   35.    35 a                     +0.232288 H =        +6.321 eV
   34.    34 a                     +0.183156 H =        +4.984 eV
   33.    33 a                     +0.162670 H =        +4.426 eV
   32.    32 a                     +0.155290 H =        +4.226 eV
   31.    31 a                     +0.131863 H =        +3.588 eV
   30.    30 a                     +0.128866 H =        +3.507 eV
   29.    29 a                     +0.110207 H =        +2.999 eV
   28.    28 a                     +0.107341 H =        +2.921 eV
   27.    27 a                     +0.088127 H =        +2.398 eV
   26.    26 a        2.000        -0.359712 H =        -9.788 eV
   25.    25 a        2.000        -0.398145 H =       -10.834 eV
   24.    24 a        2.000        -0.436757 H =       -11.885 eV
   23.    23 a        2.000        -0.466637 H =       -12.698 eV
   22.    22 a        2.000        -0.532530 H =       -14.491 eV
   21.    21 a        2.000        -0.544475 H =       -14.816 eV
   20.    20 a        2.000        -0.555962 H =       -15.129 eV
   19.    19 a        2.000        -0.591077 H =       -16.084 eV
   18.    18 a        2.000        -0.610972 H =       -16.625 eV
   17.    17 a        2.000        -0.664461 H =       -18.081 eV
   16.    16 a        2.000        -0.673749 H =       -18.334 eV
   15.    15 a        2.000        -0.673977 H =       -18.340 eV
   14.    14 a        2.000        -0.736662 H =       -20.046 eV
   13.    13 a        2.000        -0.869385 H =       -23.657 eV
   12.    12 a        2.000        -0.871745 H =       -23.721 eV
   11.    11 a        2.000        -1.046445 H =       -28.475 eV


    ------------------------------------------------------------------------
         total  cpu-time :   0.19 seconds
         total wall-time :   0.19 seconds
    ------------------------------------------------------------------------

   ****  eiger : all done  ****


    2019-05-14 12:32:28.390 

