 operating system is UNIX !
 hostname is         c-9-412.local

 ridft (c-9-412.local) : TURBOMOLE V7.0( ) 6 Jul 2015 at 18:30:05
 Copyright (C) 2015 TURBOMOLE GmbH, Karlsruhe


    2015-09-22 14:50:56.594 



                                  r i d f t

                        DFT program with RI approximation 
                                for coulomb part 




                                                 
                                 References:     
                                                 
          TURBOMOLE:                             
              R. Ahlrichs, M. Baer, M. Haeser, H. Horn, and
              C. Koelmel
              Electronic structure calculations on workstation
              computers: the program system TURBOMOLE
              Chem. Phys. Lett. 162: 165 (1989)
          Density Functional:                              
              O. Treutler and R. Ahlrichs                      
              Efficient Molecular Numerical Integration Schemes
              J. Chem. Phys. 102: 346 (1995)                   
          Parallel Version:                                
              Performance of parallel TURBOMOLE for Density    
              Functional Calculations                          
              M. v. Arnim and R. Ahlrichs                      
              J. Comp. Chem. 19: 1746 (1998)                   
          RI-J Method:                                     
              Auxiliary Basis Sets to approximate Coulomb      
              Potentials                                       
              Chem. Phys. Lett. 240: 283 (1995)                
              K. Eichkorn, O. Treutler, H. Oehm, M. Haeser     
              and R. Ahlrichs                                  
              Chem. Phys. Lett. 242: 652 (1995)                
                                                           
              Auxiliary Basis Sets for Main Row Atoms and their
              Use to approximate Coulomb Potentials            
              K. Eichkorn, F. Weigend, O. Treutler and         
              R. Ahlrichs                                      
              Theo. Chem. Acc. 97: 119 (1997)                   
                                                           
              Accurate Coulomb-fitting basis sets for H to Rn 
              F. Weigend                                        
              Phys. Chem. Chem. Phys. 8: 1057 (2006)            
                                                           
          Multipole accelerated RI-J (MARI-J):             
              Fast evaluation of the Coulomb potential for     
              electron densities using multipole accelerated   
              resolution of identity approximation             
              M. Sierka, A. Hogekamp and R. Ahlrichs           
              J. Chem. Phys. 118: 9136 (2003)                  
          RI-JK Method:                                     
              A fully direct RI-HF algorithm: Implementation,
              optimised auxiliary basis sets, demonstration of
              accuracy and efficiency                         
              F. Weigend                                      
              Phys. Chem. Chem. Phys. 4: 4285 (2002)           
          Two-component HF and DFT with spin-orbit coupling:  
              Self-consistent treatment of spin-orbit         
              interactions with efficient Hartree-Fock and    
              density functional methods                      
              M. K. Armbruster, F. Weigend, C. van Wüllen and 
              W. Klopper                                      
              Phys. Chem. Chem. Phys. 10: 1748 (2008)         
          Relativistic all-electron 2c calculations           
              An efficient implementation of two-component    
              relativistic exact-decoupling methods for large 
              molecules                                       
              D. Peng, N. Middendorf, F. Weigend, M. Reiher   
              J. Chem. Phys. 138, 184105 (2013)               
                                         


 


              +--------------------------------------------------+
              |      general information about current run       |
              +--------------------------------------------------+

 

 DENSITY CONVERGENCE CHECK SWITCHED ON !
 SCF CONVERGENCE IF RMS(delta[D]) <     0.1000000000E-06

 PBE functional
 exchange:    LDA + PBE
 correlation: LDA (PW) + PBE
 A DFT calculation using the RI-J approximation will be carried out.
 Allocatable memory for RI due to $ricore (MB):        5000


              +--------------------------------------------------+
              | Atomic coordinate, charge and isotop information |
              +--------------------------------------------------+

                    atomic coordinates            atom    charge  isotop
         -0.98135368    2.39896953    0.85753882    c      6.000     0
          0.71446766   -2.37372279   -1.39699894    c      6.000     0
         -0.78504893   -2.22088174    0.90374263    n      7.000     0
          0.64628634    2.24958668   -1.35485805    n      7.000     0
          1.52644518    0.14745533   -2.46505325    c      6.000     0
         -1.64083030   -0.12026217    2.03432798    c      6.000     0
          2.97372973    0.20163378   -4.31233614    o      8.000     0
         -2.95694897   -0.17530989    3.97857271    o      8.000     0
          1.26802513    3.92140849   -2.09557400    h      1.000     0
         -1.30107644   -3.89119177    1.72399715    h      1.000     0
         -2.75928361    3.34035550    0.36891234    h      1.000     0
         -0.32902022   -3.39090568   -2.87092863    h      1.000     0
         -0.08074800    3.56547858    2.31083270    h      1.000     0
          2.42521783   -3.47384576   -1.03428491    h      1.000     0
 
       center of nuclear mass  :   -0.06167766    0.01336457   -0.21840894
       center of nuclear charge:   -0.06502674    0.01329107   -0.22076789

              +--------------------------------------------------+
              |               basis set information              |
              +--------------------------------------------------+

              we will work with the 1s 3p 5d 7f 9g ... basis set
              ...i.e. with spherical basis functions...

   type   atoms  prim   cont   basis
   ---------------------------------------------------------------------------
    c        4     46     31   def2-TZVP   [5s3p2d1f|11s6p2d1f]
    n        2     46     31   def2-TZVP   [5s3p2d1f|11s6p2d1f]
    o        2     46     31   def2-TZVP   [5s3p2d1f|11s6p2d1f]
    h        6      8      6   def2-TZVP   [3s1p|5s1p]
   ---------------------------------------------------------------------------
   total:   14    416    284
   ---------------------------------------------------------------------------

   total number of primitive shells          :   66
   total number of contracted shells         :  112
   total number of cartesian basis functions :  324
   total number of SCF-basis functions       :  284


 integral neglect threshold       :  0.10E-12
 integral storage threshold THIZE :  0.10E-04
 integral storage threshold THIME :         5

 RI-J AUXILIARY BASIS SET information:

              we will work with the 1s 3p 5d 7f 9g ... basis set
              ...i.e. with spherical basis functions...

   type   atoms  prim   cont   basis
   ---------------------------------------------------------------------------
    c        4     70     49   def2-TZVP   [6s4p3d1f1g|12s5p4d2f1g]
    n        2     70     49   def2-TZVP   [6s4p3d1f1g|12s5p4d2f1g]
    o        2     70     49   def2-TZVP   [6s4p3d1f1g|12s5p4d2f1g]
    h        6     16     11   def2-TZVP   [3s1p1d|5s2p1d]
   ---------------------------------------------------------------------------
   total:   14    656    458
   ---------------------------------------------------------------------------

   total number of primitive shells          :   80
   total number of contracted shells         :  150
   total number of cartesian basis functions :  560
   total number of SCF-basis functions       :  458


 symmetry group of the molecule :   c1 

 the group has the following generators :
   c1(z)

    1 symmetry operations found

 there are 1 real representations :   a   

 maximum number of shells which are related by symmetry :  1


    mo occupation :
   irrep   mo's   occupied
    a      284       30
 
 number of basis functions   :          284
 number of occupied orbitals :           30
 
  
           ------------------
           density functional
           ------------------
 PBE functional
 exchange:    LDA + PBE
 correlation: LDA (PW) + PBE
 iterations will be done with small grid
  
 spherical integration : Lebedev's spherical grid
 spherical gridsize    :           5
    i.e. gridpoints    :         590
 value for diffuse not defined
 radial integration    : Chebyshev 2nd kind (scaling 3)
 radial gridsize       :           8
 integration cells     :          14
 partition function    : becke
 partition sharpness   :           3
  

 biggest AO integral is expected to be     7.998976882
  
           ------------------------
               RI-J - INFORMATION
           ------------------------
 Contributions to RI integral batches: 
  neglected integral batches:         584
  direct contribution:                  0
  memory contribution:        5744
 Memory core needed for (P|Q) and Cholesky      2 MByte
 Memory core minimum needed except of (P|Q)     1 MByte
 Total minimum memory core needed (sum)         3 MByte
  
 ****************************************
 Memory allocated for RI-J   210 MByte
 ****************************************
                                            

          ------------------------
          nuclear repulsion energy  :   373.697491527    
          ------------------------

 
          -----------------
          -S,T+V- integrals
          -----------------

 1e-integrals will be neglected if expon. factor < 0.103147E-13
 
   Difference densities algorithm switched on.
   The maximal number of linear combinations of
   difference densities is          20 .

 automatic virtual orbital shift switched on 
      shift if e(lumo)-e(homo) < 0.10000000    


 DIIS switched on: error vector is FDS-SDF
 Max. Iterations for DIIS is     :   4
 DIIS matrix (see manual) 
    Scaling factor of diagonals  :  1.200
    threshold for scaling factor :  0.000

 scf convergence criterion : increment of total energy < .1000000D-08
                  and increment of one-electron energy < .1000000D-05


 <geterg> : there is no data group $energy 

  MOs are in ASCII format !


 reading orbital data $scfmo  from file mos . 

 orbital characterization : scfconv=9
 

 DSCF restart information will be dumped onto file mos


 Starting SCF iterations

          Overall gridpoints after grid construction =         70470

 ITERATION  ENERGY          1e-ENERGY        2e-ENERGY     RMS[dD(SAO)]   TOL
   1  -415.70937341874    -1306.7225867     517.31572176    0.000D+00 0.103D-12
                            Exc = -54.5417271165     Coul =  571.857448880    
                              N = 59.999984100    
                            current damping = 0.700
 
          max. resid. norm for Fia-block=  7.157D-08 for orbital     23a         
          max. resid. fock norm         =  1.799D-07 for orbital    283a         

 ITERATION  ENERGY          1e-ENERGY        2e-ENERGY     RMS[dD(SAO)]   TOL
   2  -415.70937341874    -1306.7225893     517.31572436    0.369D-08 0.652D-13
                            Exc = -54.5417271075     Coul =  571.857451472    
                              N = 59.999984100    
                            current damping = 0.700
 
          Norm of current diis error: 0.11568E-05
          max. resid. norm for Fia-block=  3.482D-08 for orbital     28a         
          max. resid. fock norm         =  1.062D-07 for orbital    283a         

 ENERGY & DENSITY CONVERGED !

          Overall gridpoints after grid construction =        225120

 ITERATION  ENERGY          1e-ENERGY        2e-ENERGY     RMS[dD(SAO)]   TOL
   3  -415.70938014205    -1306.7225893     517.31571764    0.198D-08 0.620D-13
                            Exc = -54.5417339035     Coul =  571.857451543    
                              N = 59.999998898    
                            current damping = 0.750
 
          Norm of current diis error: 0.38565E-06
          max. resid. norm for Fia-block=  1.163D-08 for orbital     16a         
          max. resid. fock norm         =  1.639D-08 for orbital     15a         

 End of SCF iterations

   convergence criteria satisfied after    3 iterations


                  ------------------------------------------ 
                 |  total energy      =   -415.70938014205  |
                  ------------------------------------------ 
                 :  kinetic energy    =    414.03123308228  :
                 :  potential energy  =   -829.74061322433  :
                 :  virial theorem    =      1.99596317250  :
                 :  wavefunction norm =      1.00000000000  :
                  .......................................... 


 <geterg> : there is no data group $energy 


 <skperg> : $end is missing 


 orbitals $scfmo  will be written to file mos

    irrep                 26a         27a         28a         29a         30a   
 eigenvalues H         -0.32034    -0.24566    -0.23037    -0.22477    -0.21944
            eV          -8.7169     -6.6847     -6.2686     -6.1164     -5.9713
 occupation              2.0000      2.0000      2.0000      2.0000      2.0000 

    irrep                 31a         32a         33a         34a         35a   
 eigenvalues H         -0.04027    -0.02695    -0.01141     0.01343     0.04084
            eV          -1.0957     -0.7334     -0.3104      0.3654      1.1113
 
 
 
 
 ==============================================================================
                           electrostatic moments
 ==============================================================================

 reference point for electrostatic moments:    0.00000   0.00000   0.00000

 
              nuc           elec       ->  total
 ------------------------------------------------------------------------------
                          charge      
 ------------------------------------------------------------------------------
          60.000000     -60.000000       0.000000
 
 ------------------------------------------------------------------------------
                       dipole moment  
 ------------------------------------------------------------------------------
   x      -3.901604       3.834428      -0.067176
   y       0.797464      -0.798681      -0.001217
   z     -13.246073      13.195841      -0.050232
 
   | dipole moment | =     0.0839 a.u. =     0.2132 debye 
 
 ------------------------------------------------------------------------------
                     quadrupole moment
 ------------------------------------------------------------------------------
  xx     203.816899    -243.969828     -40.152929
  yy     217.032010    -242.596625     -25.564615
  zz     393.532365    -439.793191     -46.260826
  xy       2.780032      -2.699127       0.080905
  xz    -269.112113     278.061455       8.949342
  yz     -11.456328      11.283886      -0.172442
 
     1/3  trace=     -37.326124
     anisotropy=      24.075096
 
 ==============================================================================
 
 


    ------------------------------------------------------------------------
         total  cpu-time :   8.29 seconds
         total wall-time :   8.31 seconds
    ------------------------------------------------------------------------


   ****  ridft : all done  ****


    2015-09-22 14:51:04.906 

