STARTING ridft ON 32 PROCESSORS!
RUNNING PROGRAM /sopt/TURBOMOLE/7.3-official/bin/em64t-unknown-linux-gnu_smp/ridft_mpi.
           SMPCPUS    set: Shared-memory Parallelization with  32 CPUs.

           SMP Parallelization Reference:
           C. van Wullen, J. Comput. Chem. 32 (2011) 1195--1201
 operating system is UNIX !

 ridft (c-16-23) : TURBOMOLE V7.3 ( 22118 ) 1 Jul 2018 at 20:38:15
 Copyright (C) 2018 TURBOMOLE GmbH, Karlsruhe


    2019-03-12 12:49:51.692 



                                  r i d f t

                        DFT program with RI approximation 
                                for coulomb part 




                                                 
                                 References:     
                                                 
          TURBOMOLE:                             
              R. Ahlrichs, M. Baer, M. Haeser, H. Horn, and
              C. Koelmel
              Electronic structure calculations on workstation
              computers: the program system TURBOMOLE
              Chem. Phys. Lett. 162: 165 (1989)
          Density Functional:                              
              O. Treutler and R. Ahlrichs                      
              Efficient Molecular Numerical Integration Schemes
              J. Chem. Phys. 102: 346 (1995)                   
          Parallel Version:                                
              Performance of parallel TURBOMOLE for Density    
              Functional Calculations                          
              M. v. Arnim and R. Ahlrichs                      
              J. Comp. Chem. 19: 1746 (1998)                   
          RI-J Method:                                     
              Auxiliary Basis Sets to approximate Coulomb      
              Potentials                                       
              Chem. Phys. Lett. 240: 283 (1995)                
              K. Eichkorn, O. Treutler, H. Oehm, M. Haeser     
              and R. Ahlrichs                                  
              Chem. Phys. Lett. 242: 652 (1995)                
                                                           
              Auxiliary Basis Sets for Main Row Atoms and their
              Use to approximate Coulomb Potentials            
              K. Eichkorn, F. Weigend, O. Treutler and         
              R. Ahlrichs                                      
              Theo. Chem. Acc. 97: 119 (1997)                   
                                                           
              Accurate Coulomb-fitting basis sets for H to Rn 
              F. Weigend                                        
              Phys. Chem. Chem. Phys. 8: 1057 (2006)            
                                                           
          Multipole accelerated RI-J (MARI-J):             
              Fast evaluation of the Coulomb potential for     
              electron densities using multipole accelerated   
              resolution of identity approximation             
              M. Sierka, A. Hogekamp and R. Ahlrichs           
              J. Chem. Phys. 118: 9136 (2003)                  
          RI-JK Method:                                     
              A fully direct RI-HF algorithm: Implementation,
              optimised auxiliary basis sets, demonstration of
              accuracy and efficiency                         
              F. Weigend                                      
              Phys. Chem. Chem. Phys. 4: 4285 (2002)           
          Two-component HF and DFT with spin-orbit coupling:  
              Self-consistent treatment of spin-orbit         
              interactions with efficient Hartree-Fock and    
              density functional methods                      
              M. K. Armbruster, F. Weigend, C. van Wüllen and 
              W. Klopper                                      
              Phys. Chem. Chem. Phys. 10: 1748 (2008)         
          Two-component difference density and DIIS algorithm 
              Efficient two-component self-consistent field   
              procedures and gradients: implementation in     
              TURBOMOLE and application to Au20-              
              A. Baldes, F. Weigend                           
              Mol. Phys. 111: 2617 (2013)                     
          Relativistic all-electron 2c calculations           
              An efficient implementation of two-component    
              relativistic exact-decoupling methods for large 
              molecules                                       
              D. Peng, N. Middendorf, F. Weigend, M. Reiher   
              J. Chem. Phys. 138: 184105 (2013)               
          Finite nucleus model and SNSO approximation         
              Efficient implementation of one- and two-       
              component analytical energy gradients in exact  
              two-component theory                            
              Y. J. Franzke, N. Middendorf, F. Weigend        
              J. Chem. Phys. 148: 104110 (2018)               
                                         




              +--------------------------------------------------+
              |      general information about current run       |
              +--------------------------------------------------+

 
 PBE functional
 exchange:    LDA + PBE
 correlation: LDA (PW) + PBE
 A DFT calculation using the RI-J approximation will be carried out.
 Allocatable memory for RI due to $ricore (MB):                  8000


              +--------------------------------------------------+
              | Atomic coordinate, charge and isotop information |
              +--------------------------------------------------+

                    atomic coordinates            atom    charge  isotop
          2.61043403   -0.00044121    0.24843046    n      7.000     0
          1.28378694   -2.15474030    0.17400534    c      6.000     0
          2.37863533   -3.88331583    0.23788555    h      1.000     0
         -1.34118081   -2.25465884    0.01259364    c      6.000     0
         -2.29429321   -4.06019307   -0.04782615    h      1.000     0
         -2.68646032    0.00025214   -0.07713276    c      6.000     0
         -4.72563086    0.00048674   -0.20630090    h      1.000     0
         -1.34057398    2.25477470    0.01232476    c      6.000     0
         -2.29320463    4.06054494   -0.04824151    h      1.000     0
          1.28435551    2.15420508    0.17365266    c      6.000     0
          2.37965791    3.88246293    0.23716531    h      1.000     0
          0.03704729    1.25938784    6.58998956    c      6.000     0
          1.75759381    2.31666263    6.28930608    h      1.000     0
         -1.68174839    2.32217781    6.88660192    h      1.000     0
          0.03767597   -1.25902618    6.59023945    c      6.000     0
          1.75871701   -2.31553896    6.28975328    h      1.000     0
         -1.68062950   -2.32261085    6.88709493    h      1.000     0
 
       center of nuclear mass  :   -0.00566454   -0.00002951    1.79247081
       center of nuclear charge:   -0.04275794   -0.00002147    1.88135323

              +--------------------------------------------------+
              |               basis set information              |
              +--------------------------------------------------+

              we will work with the 1s 3p 5d 7f 9g ... basis set
              ...i.e. with spherical basis functions...

   type   atoms  prim   cont   basis
   ---------------------------------------------------------------------------
    n        1     77     57   def2-QZVP   [7s4p3d2f1g|15s8p3d2f1g]
    c        7     77     57   def2-QZVP   [7s4p3d2f1g|15s8p3d2f1g]
    h        9     33     30   def2-QZVP   [4s3p2d1f|7s3p2d1f]
   ---------------------------------------------------------------------------
   total:   17    913    726
   ---------------------------------------------------------------------------

   total number of primitive shells          :   71
   total number of contracted shells         :  226
   total number of cartesian basis functions :  891
   total number of SCF-basis functions       :  726


 integral neglect threshold       :  0.37E-11
 integral storage threshold THIZE :  0.10E-04
 integral storage threshold THIME :         5

 RI-J AUXILIARY BASIS SET information:

              we will work with the 1s 3p 5d 7f 9g ... basis set
              ...i.e. with spherical basis functions...

   type   atoms  prim   cont   basis
   ---------------------------------------------------------------------------
    n        1     70     49   def2-QZVP   [6s4p3d1f1g|12s5p4d2f1g]
    c        7     70     49   def2-QZVP   [6s4p3d1f1g|12s5p4d2f1g]
    h        9     16     11   def2-QZVP   [3s1p1d|5s2p1d]
   ---------------------------------------------------------------------------
   total:   17    704    491
   ---------------------------------------------------------------------------

   total number of primitive shells          :   56
   total number of contracted shells         :  165
   total number of cartesian basis functions :  596
   total number of SCF-basis functions       :  491


 symmetry group of the molecule :   c1 

 the group has the following generators :
   c1(z)

    1 symmetry operations found

 there are 1 real representations :   a   

 maximum number of shells which are related by symmetry :  1


    mo occupation :
   irrep   mo's   occupied
    a      726       29
 
 number of basis functions   :                    726
 number of occupied orbitals :                     29
 
  
           ------------------
           density functional
           ------------------
 PBE functional
 exchange:    LDA + PBE
 correlation: LDA (PW) + PBE

 iterations will be done with small grid
  
 spherical integration : Lebedev's spherical grid
 spherical gridsize    :                     4
    i.e. gridpoints    :                   434
 value for diffuse not defined
 radial integration    : Chebyshev 2nd kind (scaling 3)
 radial gridsize       :                     6
 integration cells     :                    17
 partition function    : becke
 partition sharpness   :                     3
  

 biggest AO integral is expected to be     6.129561670
  
           ------------------------
               RI-J - INFORMATION
           ------------------------
 Contributions to RI integral batches: 
  neglected integral batches:                  4867
  direct contribution:                            0
  memory contribution:                 20784
 Memory core needed for (P|Q) and Cholesky      2 MByte
 Memory core minimum needed except of (P|Q)     3 MByte
 Total minimum memory core needed (sum)         5 MByte
  
 ****************************************
 Memory allocated for RI-J  1492 MByte
 ****************************************
                                            

          ------------------------
          nuclear repulsion energy  :   332.113075495    
          ------------------------

   .------------------------------.
   |            DFT-D4            |
   |          ==========          |
   |  E. Caldeweyher,  S. Grimme  |
   |   University of Bonn, MCTC   |
   |     02/2018, Version 1.0     |
   '------------------------------'
  This code comes without any warranty

 Cite this work as:
   E. Caldeweyher, C. Bannwarth, and S. Grimme,
   J. Chem. Phys., 2017, 147, 034112.
   E. Caldeweyher, S. Ehlert, and S. Grimme,
   J. Chem. Phys., in preparation.

 Contributions:
   P. Shushkov - GBSA(H2O)
   S. Ehlert   - MBD, DFA fit

number of atoms            :    17
number of electrons        :    42
charge                     :  0
spin                       : 0.0
 Found param_gfn2.xtb file !
========================================================================
    G F N  parametrization, version 3
   Geometries Frequencies Non-covalent interactions
 /sopt/TURBOMOLE/7.3-official/parameter/param_gfn2.xtb
========================================================================
 method parameters:
------------------------------------------------------------------------
k(s)        :               1.8500
k(p)        :               2.2300
k(d)        :               2.2300
k(f)        :               2.0000
kEN (H0ij)  :              -2.0000
D3 a1       :               0.5200
D3 a2       :               5.0000
D3 s8       :               2.7000
D3atm       :               5.0000
alphaj      :               2.0000
AESdamp     :               4.0000
AESrad      :               3.0000
expscalexp  :               5.0000
------------------------------------------------------------------------
------------------------------------------------------------------------
 xTB basis
------------------------------------------------------------------------
  Z AO/shell   Hii/eV     exponent
  1     Wed Apr 25 08:07:45 CEST 2018   EN: 2.200 GM2: 0.406  GM3: 0.0800  RAES: 1.40
     1s    -10.707211    1.230000
  6     Wed Apr 25 08:07:45 CEST 2018   EN: 2.550 GM2: 0.538  GM3: 0.1500  RAES: 3.00
     2s    -13.970922    2.096432
     2p    -10.063292    1.800000
  7     Wed Apr 25 08:07:45 CEST 2018   EN: 3.040 GM2: 0.461  GM3:-0.0640  RAES: 1.90
     2s    -16.686243    2.339881
     2p    -12.523956    2.014332
------------------------------------------------------------------------
 DFT-D4 reference setup
------------------------------------------------------------------------
 N      q(ref)        CN(ref)   cov. CN(ref)  alpha(AIM,ref)
     0.0000000      0.0000000      0.0000000      7.5385089
    -0.1797353      0.9622367      0.8575417      8.1244983
    -0.1525504      2.0397432      1.8555113      7.4399298
    -0.4289141      2.9186070      2.5786982      8.2914891
     0.0000000      0.9992288      0.9808497      5.8062716
 C      q(ref)        CN(ref)   cov. CN(ref)  alpha(AIM,ref)
     0.0000000      0.0000000      0.0000000     12.3555336
    -0.1299310      0.9367838      0.9179641     12.6203061
    -0.0788263      1.9884028      1.9096951      9.3103249
    -0.0767301      2.9881158      2.8401678      8.8356702
    -0.0945886      3.9165802      3.7567914      6.6924619
    -0.0285648      3.3673832      3.0308559      8.9184424
     0.0506204      0.9979550      0.8555886      7.7402501
 H      q(ref)        CN(ref)   cov. CN(ref)  alpha(AIM,ref)
     0.0000000      0.0000000      0.0000000      5.0540161
     0.0000000      0.8115055      0.8943405      2.7207580
 no old-style atom pair restraing (fixing) potential
------------------------------------------------------------------------
 SCC calculation
------------------------------------------------------------------------

------------------------------------------------------------------------
 Dispersion Energy Calculation
 * damping parameters for pbe-D4
 s6       :    1.0000
 s8       :    0.9516
 a1       :    0.4044
 a2       :    4.6501
========================================================================
 Edisp  /kcal,au:   -10.2869  -0.01639323
------------------------------------------------------------------------
 E(2)   /kcal,au:   -10.4093  -0.01658821
 Emany  /kcal,au:     0.1223   0.00019498
 Eresp  /kcal,au:     0.0000   0.00000000
========================================================================
 nuclear repulsion energy                  =     332.113075495
 empirical dispersive energy correction    =      -0.016393228
 nuclear repulsion + dispersion correction =     332.096682267


         -----------------
         -S,T+V- integrals
         -----------------

 1e-integrals will be neglected if expon. factor < 0.375080E-12
 Difference densities >>NOT<< switched on in parallel ridft!

 DIIS switched on: error vector is FDS-SDF
 Max. Iterations for DIIS is     :   4
 DIIS matrix (see manual) 
    Scaling factor of diagonals  :  1.200
    threshold for scaling factor :  0.000

 scf convergence criterion : increment of total energy < .1000000D-06
                  and increment of one-electron energy < .1000000D-03

  MOs are in ASCII format !


 automatic virtual orbital shift switched on 
      shift if e(lumo)-e(homo) < 0.10000000    


 reading orbital data $scfmo  from file mos
 orbital characterization : expanded
 mo provided and orthogonalized by Cholesky decomposition

 DSCF restart information will be dumped onto file mos


 Starting SCF iterations

          Overall gridpoints after grid construction =         44412

 ITERATION  ENERGY          1e-ENERGY        2e-ENERGY     NORM[dD(SAO)]  TOL
   1  -325.29697255469    -1084.9301958     427.53654098    0.000D+00 0.374D-11
                            Exc = -46.5024258188     Coul =  474.038966798    
                              N = 58.000027615    
                            current damping = 0.700
 
          max. resid. norm for Fia-block=  5.805D-01 for orbital      9a         
          max. resid. fock norm         =  5.218D+01 for orbital    631a         

 ITERATION  ENERGY          1e-ENERGY        2e-ENERGY     NORM[dD(SAO)]  TOL
   2  -326.34858607465    -1093.8082743     435.36300594    0.000D+00 0.374D-11
                            Exc = -47.2856104209     Coul =  482.648616361    
                              N = 58.000077000    
                            current damping = 0.650
 
          Norm of current diis error:  3.3553    
          max. resid. norm for Fia-block=  1.375D-01 for orbital      1a         
          max. resid. fock norm         =  2.219D-01 for orbital    673a         

 ITERATION  ENERGY          1e-ENERGY        2e-ENERGY     NORM[dD(SAO)]  TOL
   3  -326.52821176216    -1095.8242473     437.19935323    0.000D+00 0.374D-11
                            Exc = -47.5582667147     Coul =  484.757619948    
                              N = 58.000081800    
                            current damping = 0.550
 
          Norm of current diis error:  1.6319    
          max. resid. norm for Fia-block=  5.794D-02 for orbital     29a         
          max. resid. fock norm         =  6.123D-02 for orbital      9a         

 ITERATION  ENERGY          1e-ENERGY        2e-ENERGY     NORM[dD(SAO)]  TOL
   4  -326.58630488995    -1096.9038667     438.22087952    0.000D+00 0.374D-11
                            Exc = -47.6678911357     Coul =  485.888770653    
                              N = 58.000118244    
                            current damping = 0.450
 
          Norm of current diis error: 0.64811    
          max. resid. norm for Fia-block=  2.952D-02 for orbital      9a         
          max. resid. fock norm         =  5.246D-02 for orbital    678a         

 ITERATION  ENERGY          1e-ENERGY        2e-ENERGY     NORM[dD(SAO)]  TOL
   5  -326.59344855594    -1097.7604387     439.07030784    0.000D+00 0.374D-11
                            Exc = -47.7693822263     Coul =  486.839690067    
                              N = 58.000114024    
                            current damping = 0.350
 
          Norm of current diis error: 0.40765    
          max. resid. norm for Fia-block=  1.575D-02 for orbital     29a         
          max. resid. fock norm         =  1.731D-02 for orbital     29a         
          mo-orthogonalization: Cholesky decomposition

 ITERATION  ENERGY          1e-ENERGY        2e-ENERGY     NORM[dD(SAO)]  TOL
   6  -326.59749826086    -1097.5495443     438.85536380    0.000D+00 0.374D-11
                            Exc = -47.7549223611     Coul =  486.610286160    
                              N = 58.000128116    
                            current damping = 0.400
 
          Norm of current diis error: 0.15537    
          max. resid. norm for Fia-block=  3.865D-03 for orbital     27a         
          max. resid. fock norm         =  9.683D-03 for orbital    722a         

 ITERATION  ENERGY          1e-ENERGY        2e-ENERGY     NORM[dD(SAO)]  TOL
   7  -326.59798886498    -1097.6634468     438.96877572    0.000D+00 0.374D-11
                            Exc = -47.7640354006     Coul =  486.732811118    
                              N = 58.000125764    
                            current damping = 0.450
 
          Norm of current diis error: 0.65240E-01
          max. resid. norm for Fia-block=  1.767D-03 for orbital     17a         
          max. resid. fock norm         =  5.126D-03 for orbital    722a         

 ITERATION  ENERGY          1e-ENERGY        2e-ENERGY     NORM[dD(SAO)]  TOL
   8  -326.59807840775    -1097.6974830     439.00272234    0.000D+00 0.374D-11
                            Exc = -47.7683397550     Coul =  486.771062096    
                              N = 58.000126690    
                            current damping = 0.300
 
          Norm of current diis error: 0.14528E-01
          max. resid. norm for Fia-block=  3.896D-04 for orbital     29a         
          max. resid. fock norm         =  7.529D-04 for orbital    722a         

 ITERATION  ENERGY          1e-ENERGY        2e-ENERGY     NORM[dD(SAO)]  TOL
   9  -326.59808333570    -1097.6827732     438.98800759    0.000D+00 0.374D-11
                            Exc = -47.7675905475     Coul =  486.755598137    
                              N = 58.000126560    
                            current damping = 0.350
 
          Norm of current diis error: 0.36584E-02
          max. resid. norm for Fia-block=  1.273D-04 for orbital     20a         
          max. resid. fock norm         =  1.742D-04 for orbital    724a         

 ITERATION  ENERGY          1e-ENERGY        2e-ENERGY     NORM[dD(SAO)]  TOL
  10  -326.59808343845    -1097.6902928     438.99552714    0.000D+00 0.374D-11
                            Exc = -47.7679192299     Coul =  486.763446368    
                              N = 58.000126764    
                            current damping = 0.400
 
          Norm of current diis error: 0.27680E-02
          max. resid. norm for Fia-block=  7.561D-05 for orbital     29a         
          max. resid. fock norm         =  1.369D-04 for orbital    685a         
          mo-orthogonalization: Cholesky decomposition

 ITERATION  ENERGY          1e-ENERGY        2e-ENERGY     NORM[dD(SAO)]  TOL
  11  -326.59808354996    -1097.6894116     438.99464583    0.000D+00 0.374D-11
                            Exc = -47.7679276610     Coul =  486.762573487    
                              N = 58.000126666    
                            current damping = 0.450
 
          Norm of current diis error: 0.14781E-02
          max. resid. norm for Fia-block=  4.094D-05 for orbital     26a         
          max. resid. fock norm         =  7.395D-05 for orbital    722a         

 ITERATION  ENERGY          1e-ENERGY        2e-ENERGY     NORM[dD(SAO)]  TOL
  12  -326.59808360196    -1097.6880282     438.99326238    0.000D+00 0.374D-11
                            Exc = -47.7678354229     Coul =  486.761097802    
                              N = 58.000126691    
                            current damping = 0.300
 
          Norm of current diis error: 0.22423E-03
          max. resid. norm for Fia-block=  8.161D-06 for orbital     26a         
          max. resid. fock norm         =  2.034D-05 for orbital    722a         

 ENERGY CONVERGED !

          Overall gridpoints after grid construction =        162553

 ITERATION  ENERGY          1e-ENERGY        2e-ENERGY     NORM[dD(SAO)]  TOL
  13  -326.59795680237    -1097.6880807     438.99344162    0.000D+00 0.374D-11
                            Exc = -47.7677172782     Coul =  486.761158896    
                              N = 58.000005664    
                            current damping = 0.350
 
          Norm of current diis error: 0.12042E-03
          max. resid. norm for Fia-block=  2.434D-06 for orbital     26a         
          max. resid. fock norm         =  6.399D-06 for orbital    724a         

 End of SCF iterations

   convergence criteria satisfied after    13 iterations


                  ------------------------------------------ 
                 |  total energy      =   -326.59795680237  |
                  ------------------------------------------ 
                 :  kinetic energy    =    325.20386491001  :
                 :  potential energy  =   -651.80182171238  :
                 :  virial theorem    =      1.99573147393  :
                 :  wavefunction norm =      1.00000000000  :
                  .......................................... 


 <geterg> : there is no data group $energy 


 <skperg> : $end is missing 


 orbitals $scfmo  will be written to file mos

    irrep                 25a         26a         27a         28a         29a   
 eigenvalues H         -0.30945    -0.26661    -0.24454    -0.24061    -0.21661
            eV          -8.4207     -7.2549     -6.6544     -6.5475     -5.8944
 occupation              2.0000      2.0000      2.0000      2.0000      2.0000 

    irrep                 30a         31a         32a         33a         34a   
 eigenvalues H         -0.06678    -0.05361    -0.03202     0.00172     0.02170
            eV          -1.8172     -1.4588     -0.8712      0.0468      0.5904
 
 
 
 
 ==============================================================================
                           electrostatic moments
 ==============================================================================

 reference point for electrostatic moments:    0.00000   0.00000   0.00000

 
              nuc           elec       ->  total
 ------------------------------------------------------------------------------
                          charge      
 ------------------------------------------------------------------------------
          58.000000     -58.000000       0.000000
 
 ------------------------------------------------------------------------------
                       dipole moment  
 ------------------------------------------------------------------------------
   x      -2.479961       1.620868      -0.859093
   y      -0.001245       0.001348       0.000103
   z     109.118488    -109.201620      -0.083132
 
   | dipole moment | =     0.8631 a.u. =     2.1938 debye 
 
 ------------------------------------------------------------------------------
                     quadrupole moment
 ------------------------------------------------------------------------------
  xx     188.391071    -224.941774     -36.550704
  yy     220.375764    -252.042541     -31.666776
  zz     696.121234    -736.406278     -40.285044
  xy      -0.005534       0.006270       0.000736
  xz      12.500730     -12.781888      -0.281158
  yz      -0.000116      -0.000683      -0.000799
 
     1/3  trace=     -36.167508
     anisotropy=       7.501563
 
 ==============================================================================
 


    ------------------------------------------------------------------------
         total  cpu-time :  4 minutes and 29 seconds
         total wall-time :  1 minutes and  4 seconds
    ------------------------------------------------------------------------

   ****  ridft : all done  ****


    2019-03-12 12:50:55.450 

