Using Slurm to start processes with PMI2
STARTING ridft ON 8 PROCESSORS!
RUNNING PROGRAM /beegfs/modfac/apps/TURBOMOLE/7.0_intel_GA/bin/em64t-unknown-linux-gnu_mpi/ridft_mpi.
PLEASE WAIT UNTIL ridft HAS FINISHED.
Look for the output in slave1.output.
  this is node-proc. number 1 running on node c-8-40.local
  the total number of node-proc. spawned is            8
  parallel platform: MPP, or cluster with fast interconnect

 ridft (c-8-40.local) : TURBOMOLE V7.0.2( ) 15 Jan 2016 at 17:47:42
 Copyright (C) 2016 TURBOMOLE GmbH, Karlsruhe


    2018-01-15 15:02:27.635 



                                  r i d f t

                        DFT program with RI approximation 
                                for coulomb part 




                                                 
                                 References:     
                                                 
          TURBOMOLE:                             
              R. Ahlrichs, M. Baer, M. Haeser, H. Horn, and
              C. Koelmel
              Electronic structure calculations on workstation
              computers: the program system TURBOMOLE
              Chem. Phys. Lett. 162: 165 (1989)
          Density Functional:                              
              O. Treutler and R. Ahlrichs                      
              Efficient Molecular Numerical Integration Schemes
              J. Chem. Phys. 102: 346 (1995)                   
          Parallel Version:                                
              Performance of parallel TURBOMOLE for Density    
              Functional Calculations                          
              M. v. Arnim and R. Ahlrichs                      
              J. Comp. Chem. 19: 1746 (1998)                   
          RI-J Method:                                     
              Auxiliary Basis Sets to approximate Coulomb      
              Potentials                                       
              Chem. Phys. Lett. 240: 283 (1995)                
              K. Eichkorn, O. Treutler, H. Oehm, M. Haeser     
              and R. Ahlrichs                                  
              Chem. Phys. Lett. 242: 652 (1995)                
                                                           
              Auxiliary Basis Sets for Main Row Atoms and their
              Use to approximate Coulomb Potentials            
              K. Eichkorn, F. Weigend, O. Treutler and         
              R. Ahlrichs                                      
              Theo. Chem. Acc. 97: 119 (1997)                   
                                                           
              Accurate Coulomb-fitting basis sets for H to Rn 
              F. Weigend                                        
              Phys. Chem. Chem. Phys. 8: 1057 (2006)            
                                                           
          Multipole accelerated RI-J (MARI-J):             
              Fast evaluation of the Coulomb potential for     
              electron densities using multipole accelerated   
              resolution of identity approximation             
              M. Sierka, A. Hogekamp and R. Ahlrichs           
              J. Chem. Phys. 118: 9136 (2003)                  
          RI-JK Method:                                     
              A fully direct RI-HF algorithm: Implementation,
              optimised auxiliary basis sets, demonstration of
              accuracy and efficiency                         
              F. Weigend                                      
              Phys. Chem. Chem. Phys. 4: 4285 (2002)           
          Two-component HF and DFT with spin-orbit coupling:  
              Self-consistent treatment of spin-orbit         
              interactions with efficient Hartree-Fock and    
              density functional methods                      
              M. K. Armbruster, F. Weigend, C. van Wüllen and 
              W. Klopper                                      
              Phys. Chem. Chem. Phys. 10: 1748 (2008)         
          Relativistic all-electron 2c calculations           
              An efficient implementation of two-component    
              relativistic exact-decoupling methods for large 
              molecules                                       
              D. Peng, N. Middendorf, F. Weigend, M. Reiher   
              J. Chem. Phys. 138, 184105 (2013)               
                                         


 


              +--------------------------------------------------+
              |      general information about current run       |
              +--------------------------------------------------+

 

 SCF run will be profiled !


 DENSITY CONVERGENCE CHECK SWITCHED ON !
 SCF CONVERGENCE IF RMS(delta[D]) <     0.1000000000E-06

 PBE functional
 exchange:    LDA + PBE
 correlation: LDA (PW) + PBE
 A DFT calculation using the RI-J approximation will be carried out.
 Allocatable memory for RI due to $ricore (MB):       15000


              +--------------------------------------------------+
              | Atomic coordinate, charge and isotop information |
              +--------------------------------------------------+

                    atomic coordinates            atom    charge  isotop
          0.99983098    2.27022842    4.28976172    c      6.000     0
          2.48710807    0.09584961    4.39163542    c      6.000     0
          1.17615423   -2.19117405    4.48559974    c      6.000     0
         -1.45226929   -2.39010747    4.46730796    c      6.000     0
         -2.78628344   -0.12300939    4.35759329    c      6.000     0
         -1.63793068    2.25055548    4.23535275    c      6.000     0
         -3.11407188    4.62659342    4.11977596    c      6.000     0
         -3.08840784    6.26697104    6.18672877    c      6.000     0
         -4.41646638    8.53991405    6.18264081    c      6.000     0
         -5.82011739    9.20888476    4.06146507    c      6.000     0
         -5.87524501    7.60273202    1.97368050    c      6.000     0
         -4.53661592    5.33855564    1.98829002    c      6.000     0
         -2.75030830   -4.87040525    4.67298264    c      6.000     0
         -3.55171109   -6.25271537    2.55143576    c      6.000     0
         -4.75463168   -8.56476525    2.89864098    c      6.000     0
         -5.17724158   -9.54052768    5.30850749    c      6.000     0
         -4.38623898   -8.18377155    7.41816738    c      6.000     0
         -3.18404774   -5.86848176    7.07458722    c      6.000     0
          5.28649567    0.19888668    4.47054318    c      6.000     0
          6.75361331    0.96847579    2.39078996    c      6.000     0
          9.37121131    1.02923140    2.61221743    c      6.000     0
         10.57622705    0.33338673    4.84870459    c      6.000     0
          9.13917161   -0.44205910    6.91024675    c      6.000     0
          6.51753572   -0.50056906    6.69710277    c      6.000     0
          2.17055653    4.53148358    4.24585005    f      9.000     0
         -5.33166529   -0.22509561    4.40915431    f      9.000     0
          2.53078935   -4.34374056    4.59245764    f      9.000     0
         -1.77099151    5.65992826    8.27334732    f      9.000     0
         -4.36022207   10.06979858    8.19775174    f      9.000     0
         -7.10409534   11.39032407    4.03085675    f      9.000     0
         -7.23620931    8.31980689   -0.04731399    f      9.000     0
         -5.55104976   -9.94758328    0.91227972    f      9.000     0
         -6.33821694  -11.77446441    5.60951590    f      9.000     0
         -4.78461974   -9.10390981    9.74574967    f      9.000     0
         -2.43885163   -4.58425191    9.14502184    f      9.000     0
         10.84072745    1.74962522    0.65825925    f      9.000     0
         13.10484609    0.39960173    5.02748196    f      9.000     0
         10.27660790   -1.11001677    9.07483649    f      9.000     0
          5.16825874   -1.23490832    8.72936780    f      9.000     0
         -4.64886568    3.05669374   -1.24295190    i     53.000     0
         -2.98668180   -4.93812542   -1.21244390    i     53.000     0
          5.10080245    1.97086226   -1.14747160    i     53.000     0
 
       center of nuclear mass  :   -0.40679515    0.00536160    2.53310865
       center of nuclear charge:   -0.38151631    0.00393898    2.74897745

              +--------------------------------------------------+
              |               basis set information              |
              +--------------------------------------------------+

              we will work with the 1s 3p 5d 7f 9g ... basis set
              ...i.e. with spherical basis functions...

   type   atoms  prim   cont   basis
   ---------------------------------------------------------------------------
    c       24     50     30   cc-pVTZ   [4s3p2d1f|18s5p2d1f]
    f       15     50     30   cc-pVTZ   [4s3p2d1f|18s5p2d1f]
    i        3    133     39   cc-pVTZ-PP   [5s4p3d1f|21s20p9d1f]
   ---------------------------------------------------------------------------
   total:   42   2349   1287
   ---------------------------------------------------------------------------

   total number of primitive shells          :  103
   total number of contracted shells         :  429
   total number of cartesian basis functions : 1500
   total number of SCF-basis functions       : 1287


 integral neglect threshold       :  0.22E-13
 integral storage threshold THIZE :  0.10E-04
 integral storage threshold THIME :         5

 number of unique ecp types :           1
 RI-J AUXILIARY BASIS SET information:

              we will work with the 1s 3p 5d 7f 9g ... basis set
              ...i.e. with spherical basis functions...

   type   atoms  prim   cont   basis
   ---------------------------------------------------------------------------
    c       24     70     49   cc-pVTZ   [6s4p3d1f1g|12s5p4d2f1g]
    f       15     70     49   cc-pVTZ   [6s4p3d1f1g|12s5p4d2f1g]
    i        3     81     58   universal-ecp-2   [8s4p3d2f1g|11s5p5d3f1g]
   ---------------------------------------------------------------------------
   total:   42   2973   2085
   ---------------------------------------------------------------------------

   total number of primitive shells          :   73
   total number of contracted shells         :  639
   total number of cartesian basis functions : 2598
   total number of SCF-basis functions       : 2085


 symmetry group of the molecule :   c1 

 the group has the following generators :
   c1(z)

    1 symmetry operations found

 there are 1 real representations :   a   

 maximum number of shells which are related by symmetry :  1


    mo occupation :
   irrep   mo's   occupied
    a     1287      177
 
 number of basis functions   :         1287
 number of occupied orbitals :          177
 
  
           ------------------
           density functional
           ------------------
 PBE functional
 exchange:    LDA + PBE
 correlation: LDA (PW) + PBE
 grinp -> nfun, dfgga, dfhybrid 
           6 T F
 iterations will be done with small grid
  
 spherical integration : Lebedev's spherical grid
 spherical gridsize    :           5
    i.e. gridpoints    :         590
 value for diffuse not defined
 radial integration    : Chebyshev 2nd kind (scaling 3)
 radial gridsize       :           8
 integration cells     :          42
 partition function    : becke
 partition sharpness   :           3
  

 <rddim> : input of entry tasksize
           from data group '$pardft' failed !

               Default values taken

 <rddim> : input of entry memdiv
           from data group '$pardft' failed !

               Default values taken
  RIDFT: memory allocation for DFT gridpoints
  MEMORY is divided by 1 as DEFAULT
 Each node can hold at most  the            1 -th part
 of the gridpoints    

 biggest AO integral is expected to be     5.499692413
  
           ------------------------
               RI-J - INFORMATION
           ------------------------
 
 
 **************************************************
 *      MEMORY ALLOCATION FOR PARALLEL RI-DFT     *
 **************************************************
 
 
MEMORY FOR (MU NU/ ALPHA), SEQUENTIAL RUN              14965 MByte
 
            DIFFERENCE IN MEMORY NEED:       DIAG./SLAVE  
 
      TOTAL DIFFERENCE :                    102 MByte
 
      difference in xcore:                   36 MByte
      difference in fatmat:                  24 MByte
      getcor calls skipped by slaves:        43 MByte
 
 
           Integral memory available for diagonal.     14965 MByte
 
           Integral memory available for slave             0 MByte
 
         MEMORY FOR (MU NU/ ALPHA) ON DIAGONALIZER     14965 MByte
 
         MEMORY FOR (MU NU/ ALPHA) ON ONE SLAVE            0 MByte
 
         TOTAL MEMORY FOR (MU NU/ ALPHA),ALL NODES     14965 MByte
 
 Contributions to RI integral batches: 
  neglected integral batches:       45334
  direct contribution:                  0
  memory contribution:       46901
 Memory core needed for (P|Q) and Cholesky     34 MByte
 Memory core minimum needed except of (P|Q)     7 MByte
 Total minimum memory core needed (sum)        40 MByte
  
 ****************************************
 Memory allocated for RI-J 15004 MByte
 ****************************************
                                            

          ------------------------
          nuclear repulsion energy  :   6616.23731234    
          ------------------------

 
          -----------------
          -S integrals
          -----------------

 1e-integrals will be neglected if expon. factor < 0.222797E-14
 
          -----------------
          -T+V integrals
          -----------------

 1e-integrals will be neglected if expon. factor < 0.222797E-14
 
           ----------------
           -ecp-  integrals
           ----------------
 Difference densities >>NOT<< switched on in parallel ridft!

 automatic virtual orbital shift switched on 
      shift if e(lumo)-e(homo) < 0.10000000    


 DIIS switched on: error vector is FDS-SDF
 Max. Iterations for DIIS is     :   4
 DIIS matrix (see manual) 
    Scaling factor of diagonals  :  1.200
    threshold for scaling factor :  0.000

 scf convergence criterion : increment of total energy < .1000000D-08
                  and increment of one-electron energy < .1000000D-05


 <geterg> : there is no data group $energy 

  MOs are in ASCII format !


 reading orbital data $scfmo  from file mos . 

 orbital characterization : expanded
 
 mo provided and orthogonalized by Cholesky decomposition

 DSCF restart information will be dumped onto file mos


 Starting SCF iterations


 ITERATION  ENERGY          1e-ENERGY        2e-ENERGY     RMS[dD(SAO)]   TOL
   1  -3290.8547343934    -18011.502458     8104.4104113    0.000D+00 0.222D-13
                            Exc = -351.633701986     Coul =  8456.04411326    
                              N = 354.00033441    
                            current damping = 0.700
 
          max. resid. norm for Fia-block=  3.711D-01 for orbital    130a         
          max. resid. fock norm         =  1.067D+01 for orbital   1057a         

 ITERATION  ENERGY          1e-ENERGY        2e-ENERGY     RMS[dD(SAO)]   TOL
   2  -3296.5882661751    -18040.894949     8128.0693701    0.644D-02 0.222D-13
                            Exc = -349.730257325     Coul =  8477.79962741    
                              N = 354.00029094    
                            current damping = 0.650
 
          Norm of current diis error:  4.3017    
          max. resid. norm for Fia-block=  1.392D-01 for orbital     11a         
          max. resid. fock norm         =  3.361D-01 for orbital   1261a         

 ITERATION  ENERGY          1e-ENERGY        2e-ENERGY     RMS[dD(SAO)]   TOL
   3  -3297.3369188792    -18060.853072     8147.2788405    0.342D-02 0.222D-13
                            Exc = -351.162234635     Coul =  8498.44107514    
                              N = 354.00026389    
                            current damping = 0.550
 
          Norm of current diis error:  2.0581    
          max. resid. norm for Fia-block=  5.855D-02 for orbital     10a         
          max. resid. fock norm         =  8.481D-02 for orbital    288a         

 ITERATION  ENERGY          1e-ENERGY        2e-ENERGY     RMS[dD(SAO)]   TOL
   4  -3297.5434272237    -18060.340667     8146.5599270    0.281D-02 0.222D-13
                            Exc = -350.335099194     Coul =  8496.89502622    
                              N = 354.00026183    
                            current damping = 0.600
 
          Norm of current diis error: 0.79601    
          max. resid. norm for Fia-block=  2.224D-02 for orbital     85a         
          max. resid. fock norm         =  4.657D-02 for orbital   1017a         

 ITERATION  ENERGY          1e-ENERGY        2e-ENERGY     RMS[dD(SAO)]   TOL
   5  -3297.5748961959    -18063.539245     8149.7270362    0.100D-02 0.222D-13
                            Exc = -350.787814674     Coul =  8500.51485087    
                              N = 354.00025851    
                            current damping = 0.650
 
          Norm of current diis error: 0.37361    
          max. resid. norm for Fia-block=  8.833D-03 for orbital     85a         
          max. resid. fock norm         =  1.076D-02 for orbital   1270a         
          mo-orthogonalization: Cholesky decomposition

 ITERATION  ENERGY          1e-ENERGY        2e-ENERGY     RMS[dD(SAO)]   TOL
   6  -3297.5828074059    -18064.349765     8150.5296455    0.636D-03 0.222D-13
                            Exc = -350.702753735     Coul =  8501.23239921    
                              N = 354.00025836    
                            current damping = 0.550
 
          Norm of current diis error: 0.12479    
          max. resid. norm for Fia-block=  3.385D-03 for orbital     85a         
          max. resid. fock norm         =  6.229D-03 for orbital   1048a         

 ITERATION  ENERGY          1e-ENERGY        2e-ENERGY     RMS[dD(SAO)]   TOL
   7  -3297.5836439099    -18064.135859     8150.3149031    0.284D-03 0.222D-13
                            Exc = -350.694584231     Coul =  8501.00948732    
                              N = 354.00025842    
                            current damping = 0.600
 
          Norm of current diis error: 0.65690E-01
          max. resid. norm for Fia-block=  1.675D-03 for orbital     75a         
          max. resid. fock norm         =  2.886D-03 for orbital   1174a         

 ITERATION  ENERGY          1e-ENERGY        2e-ENERGY     RMS[dD(SAO)]   TOL
   8  -3297.5838556724    -18064.426534     8150.6053665    0.853D-04 0.222D-13
                            Exc = -350.704159076     Coul =  8501.30952555    
                              N = 354.00025824    
                            current damping = 0.650
 
          Norm of current diis error: 0.26587E-01
          max. resid. norm for Fia-block=  6.448D-04 for orbital    164a         
          max. resid. fock norm         =  1.344D-03 for orbital   1272a         

 ITERATION  ENERGY          1e-ENERGY        2e-ENERGY     RMS[dD(SAO)]   TOL
   9  -3297.5838772599    -18064.409600     8150.5884105    0.266D-04 0.222D-13
                            Exc = -350.712931811     Coul =  8501.30134236    
                              N = 354.00025828    
                            current damping = 0.700
 
          Norm of current diis error: 0.19114E-01
          max. resid. norm for Fia-block=  4.468D-04 for orbital    106a         
          max. resid. fock norm         =  4.870D-04 for orbital    106a         

 ITERATION  ENERGY          1e-ENERGY        2e-ENERGY     RMS[dD(SAO)]   TOL
  10  -3297.5838942900    -18064.454417     8150.6332100    0.225D-04 0.222D-13
                            Exc = -350.705858982     Coul =  8501.33906896    
                              N = 354.00025832    
                            current damping = 0.750
 
          Norm of current diis error: 0.68219E-02
          max. resid. norm for Fia-block=  1.624D-04 for orbital    168a         
          max. resid. fock norm         =  3.435D-04 for orbital   1048a         
          mo-orthogonalization: Cholesky decomposition

 ITERATION  ENERGY          1e-ENERGY        2e-ENERGY     RMS[dD(SAO)]   TOL
  11  -3297.5838961237    -18064.442333     8150.6211250    0.601D-05 0.222D-13
                            Exc = -350.708643570     Coul =  8501.32976860    
                              N = 354.00025828    
                            current damping = 0.800
 
          Norm of current diis error: 0.32510E-02
          max. resid. norm for Fia-block=  7.052D-05 for orbital    121a         
          max. resid. fock norm         =  1.298D-04 for orbital   1265a         

 ITERATION  ENERGY          1e-ENERGY        2e-ENERGY     RMS[dD(SAO)]   TOL
  12  -3297.5838965457    -18064.443861     8150.6226525    0.308D-05 0.222D-13
                            Exc = -350.707866994     Coul =  8501.33051953    
                              N = 354.00025828    
                            current damping = 0.850
 
          Norm of current diis error: 0.13559E-02
          max. resid. norm for Fia-block=  2.586D-05 for orbital    106a         
          max. resid. fock norm         =  4.491D-05 for orbital     82a         

 ITERATION  ENERGY          1e-ENERGY        2e-ENERGY     RMS[dD(SAO)]   TOL
  13  -3297.5838966303    -18064.440685     8150.6194756    0.136D-05 0.222D-13
                            Exc = -350.707538024     Coul =  8501.32701365    
                              N = 354.00025829    
                            current damping = 0.900
 
          Norm of current diis error: 0.30870E-03
          max. resid. norm for Fia-block=  9.218D-06 for orbital    168a         
          max. resid. fock norm         =  1.569D-05 for orbital     86a         

 ITERATION  ENERGY          1e-ENERGY        2e-ENERGY     RMS[dD(SAO)]   TOL
  14  -3297.5838966336    -18064.442514     8150.6213054    0.468D-06 0.222D-13
                            Exc = -350.707564744     Coul =  8501.32887018    
                              N = 354.00025829    
                            current damping = 0.950
 
          Norm of current diis error: 0.23328E-03
          max. resid. norm for Fia-block=  4.472D-06 for orbital    167a         
          max. resid. fock norm         =  9.543D-06 for orbital   1048a         

 ITERATION  ENERGY          1e-ENERGY        2e-ENERGY     RMS[dD(SAO)]   TOL
  15  -3297.5838966362    -18064.442413     8150.6212042    0.192D-06 0.222D-13
                            Exc = -350.707607941     Coul =  8501.32881209    
                              N = 354.00025829    
                            current damping = 1.000
 
          Norm of current diis error: 0.73686E-04
          max. resid. norm for Fia-block=  1.940D-06 for orbital    176a         
          max. resid. fock norm         =  3.493D-06 for orbital   1254a         
          mo-orthogonalization: Cholesky decomposition

 ITERATION  ENERGY          1e-ENERGY        2e-ENERGY     RMS[dD(SAO)]   TOL
  16  -3297.5838966364    -18064.442040     8150.6208307    0.124D-06 0.222D-13
                            Exc = -350.707581778     Coul =  8501.32841252    
                              N = 354.00025829    
                            current damping = 0.850
 
          Norm of current diis error: 0.41485E-04
          max. resid. norm for Fia-block=  1.006D-06 for orbital    170a         
          max. resid. fock norm         =  1.889D-06 for orbital   1278a         

 DENSITY CONVERGED !


 ITERATION  ENERGY          1e-ENERGY        2e-ENERGY     RMS[dD(SAO)]   TOL
  17  -3297.5838966365    -18064.442022     8150.6208129    0.642D-07 0.222D-13
                            Exc = -350.707574006     Coul =  8501.32838688    
                              N = 354.00025829    
                            current damping = 0.700
 
          Norm of current diis error: 0.22990E-04
          max. resid. norm for Fia-block=  6.183D-07 for orbital     75a         
          max. resid. fock norm         =  1.186D-06 for orbital   1030a         

 DENSITY CONVERGED !


 ITERATION  ENERGY          1e-ENERGY        2e-ENERGY     RMS[dD(SAO)]   TOL
  18  -3297.5838966366    -18064.442074     8150.6208651    0.237D-07 0.222D-13
                            Exc = -350.707581244     Coul =  8501.32844635    
                              N = 354.00025829    
                            current damping = 0.750
 
          Norm of current diis error: 0.89109E-05
          max. resid. norm for Fia-block=  2.077D-07 for orbital    167a         
          max. resid. fock norm         =  4.052D-07 for orbital   1048a         

 ENERGY & DENSITY CONVERGED !


 ITERATION  ENERGY          1e-ENERGY        2e-ENERGY     RMS[dD(SAO)]   TOL
  19  -3297.5837815509    -18064.442066     8150.6209718    0.111D-07 0.222D-13
                            Exc = -350.707467988     Coul =  8501.32843978    
                              N = 353.99999593    
                            current damping = 0.800
 
          Norm of current diis error: 0.45981E-05
          max. resid. norm for Fia-block=  1.182D-07 for orbital    106a         
          max. resid. fock norm         =  1.695D-07 for orbital   1277a         

 End of SCF iterations

   convergence criteria satisfied after   19 iterations


                  ------------------------------------------ 
                 |  total energy      =  -3297.58378155093  |
                  ------------------------------------------ 
                 :  kinetic energy    =   2728.55361665994  :
                 :  potential energy  =  -6026.13739821087  :
                 :  virial theorem    =      1.82744027064  :
                 :  wavefunction norm =      1.00000000000  :
                  .......................................... 


 <geterg> : there is no data group $energy 


 <skperg> : $end is missing 


 orbitals $scfmo  will be written to file mos

    irrep                173a        174a        175a        176a        177a   
 eigenvalues H         -0.24303    -0.24089    -0.23648    -0.23496    -0.23154
            eV          -6.6133     -6.5551     -6.4349     -6.3937     -6.3007
 occupation              2.0000      2.0000      2.0000      2.0000      2.0000 

    irrep                178a        179a        180a        181a        182a   
 eigenvalues H         -0.10639    -0.10185    -0.09575    -0.09078    -0.08723
            eV          -2.8951     -2.7716     -2.6054     -2.4702     -2.3736
 
 
 ! grave: sending quit signal to master process
 
 
 
 
 ==============================================================================
                           electrostatic moments
 ==============================================================================

 reference point for electrostatic moments:    0.00000   0.00000   0.00000

 
              nuc           elec       ->  total
 ------------------------------------------------------------------------------
                          charge      
 ------------------------------------------------------------------------------
         354.000000    -354.000000      -0.000000
 
 ------------------------------------------------------------------------------
                       dipole moment  
 ------------------------------------------------------------------------------
   x     -96.131281      96.050768      -0.080513
   y      -0.778782       0.745727      -0.033054
   z    1304.932412   -1305.479486      -0.547074
 
   | dipole moment | =     0.5540 a.u. =     1.4080 debye 
 
 ------------------------------------------------------------------------------
                     quadrupole moment
 ------------------------------------------------------------------------------
  xx   11469.356759  -11689.577417    -220.220658
  yy   11354.192941  -11574.387888    -220.194947
  zz    8865.928234   -9083.327648    -217.399414
  xy     227.865834    -227.860114       0.005720
  xz     246.167159    -246.939868      -0.772709
  yz    -712.298220     712.844989       0.546769
 
     1/3  trace=    -219.271673
     anisotropy=       3.252038
 
 ==============================================================================
 

    ridft profiling
  --------------------------------------------------------------------
             module   cpu total (s)       %  wall total (s)       %

               RIDFT           485.0  100.00           485.0  100.00
         Ridft_b_scf            60.3   12.43            60.4   12.45
        b_scf_prelim             0.0    0.00             0.0    0.00
        b_scf_molinp             0.0    0.00             0.0    0.00
         b_scf_init0             0.0    0.00             0.0    0.00
        b_scf_auxbas             0.0    0.00             0.0    0.00
      b_scf_symmetry             0.0    0.00             0.0    0.00
         b_scf_cosmo             0.0    0.00             0.0    0.00
        b_scf_params             1.5    0.30             1.5    0.30
          b_scf_ri-j            52.5   10.82            52.5   10.83
    b_scf_ri-j_auxpq            52.5   10.82            52.5   10.83
     ri-j_auxpq_chol             1.3    0.27             1.3    0.27
         b_scf_1elec             1.0    0.21             1.0    0.21
       b_scf_moinput             5.3    1.09             5.3    1.09
     moinput_orthmos             5.0    1.04             5.0    1.04
    b_scf_dft-dstmax             0.0    0.00             0.0    0.00
           Ridft_scf           424.3   87.47           424.1   87.45
          Scf_b_loop             0.0    0.00             0.0    0.00
                noga             0.0    0.00             0.0    0.00
            Scf_loop           423.1   87.23           422.9   87.20
     scf_loop_mkdmat             3.0    0.62             3.0    0.62
       scf_loop_ri-j            46.2    9.52            46.1    9.51
      parlp1.bc.dens             1.0    0.22             1.1    0.22
        parlp1.gs.gp             0.0    0.00             0.0    0.00
        parlp2.bc.gq             0.0    0.00             0.0    0.00
        scf_loop_dft           297.9   61.41           297.7   61.38
      pardft.bc.dens             0.0    0.00             0.0    0.00
        dft_grid_con             1.2    0.24             1.2    0.24
           dft_xcrhf           292.3   60.25           292.1   60.22
          dft_getval            20.6    4.26            20.7    4.26
          funct2 dst             0.3    0.06             0.3    0.06
      funct2 f2loop1             4.5    0.93             4.6    0.95
      funct2 f2loop2            10.5    2.16            10.5    2.16
          funct2 s+c             4.8    0.98             4.8    0.98
        funct2 cmf_2             4.2    0.86             4.1    0.86
          dft_mkdens           121.7   25.10           121.6   25.08
         dft_gga-fun             0.4    0.08             0.4    0.08
          dft_mkfock           149.0   30.73           148.9   30.70
     pardft.red.fock            23.1    4.76            23.1    4.76
     scf_loop_energy             0.0    0.00             0.0    0.01
     scf_loop_mkfock             0.0    0.01             0.0    0.01
       scf_loop_diis            32.0    6.60            32.0    6.59
       scf_loop_diag            20.4    4.20            20.4    4.20
         diag_tritrn             5.7    1.18             5.7    1.18
          diag_rdiag            14.5    3.00            14.5    2.99
     scf_loop_modump            18.6    3.83            18.7    3.85
      scf_loop_ortho             4.5    0.92             4.5    0.92
          Scf_a_loop             1.2    0.24             1.2    0.24
         Ridft_a_scf             0.5    0.10             0.5    0.10
         a_scf_fanal             0.3    0.07             0.3    0.07
 


    ------------------------------------------------------------------------
         total  cpu-time :  8 minutes and  6 seconds
         total wall-time :  8 minutes and  6 seconds
    ------------------------------------------------------------------------


   ****  ridft : all done  ****


    2018-01-15 15:10:34.037 

