
 eiger (gplogin2.gp.local) : TURBOMOLE V7.3 ( 22118 ) 1 Jul 2018 at 20:38:15
 Copyright (C) 2018 TURBOMOLE GmbH, Karlsruhe


    2019-02-23 15:25:43.830 

                                                                                
  
 HOMO-LUMO Separation
   HOMO:   450.   450 a     -0.18443597 H =     -5.01876 eV
   LUMO:   451.   451 a     -0.14306659 H =     -3.89304 eV
   Gap :                    +0.04136939 H =     +1.12572 eV
 
Number of MOs=   4220, Electrons=    900.00, Symmetry: c1   
 
   Nr.   Orbital    Occupation       Energy
  467.   467 a                     -0.066743 H =        -1.816 eV
  466.   466 a                     -0.068304 H =        -1.859 eV
  465.   465 a                     -0.068576 H =        -1.866 eV
  464.   464 a                     -0.072567 H =        -1.975 eV
  463.   463 a                     -0.074186 H =        -2.019 eV
  462.   462 a                     -0.075548 H =        -2.056 eV
  461.   461 a                     -0.082878 H =        -2.255 eV
  460.   460 a                     -0.083584 H =        -2.274 eV
  459.   459 a                     -0.083643 H =        -2.276 eV
  458.   458 a                     -0.114676 H =        -3.120 eV
  457.   457 a                     -0.115518 H =        -3.143 eV
  456.   456 a                     -0.117244 H =        -3.190 eV
  455.   455 a                     -0.118354 H =        -3.221 eV
  454.   454 a                     -0.125692 H =        -3.420 eV
  453.   453 a                     -0.140248 H =        -3.816 eV
  452.   452 a                     -0.142930 H =        -3.889 eV
  451.   451 a                     -0.143067 H =        -3.893 eV
  450.   450 a        2.000        -0.184436 H =        -5.019 eV
  449.   449 a        2.000        -0.185379 H =        -5.044 eV
  448.   448 a        2.000        -0.192789 H =        -5.246 eV
  447.   447 a        2.000        -0.193305 H =        -5.260 eV
  446.   446 a        2.000        -0.204548 H =        -5.566 eV
  445.   445 a        2.000        -0.205584 H =        -5.594 eV
  444.   444 a        2.000        -0.206271 H =        -5.613 eV
  443.   443 a        2.000        -0.210264 H =        -5.722 eV
  442.   442 a        2.000        -0.214131 H =        -5.827 eV
  441.   441 a        2.000        -0.216157 H =        -5.882 eV
  440.   440 a        2.000        -0.217017 H =        -5.905 eV
  439.   439 a        2.000        -0.217654 H =        -5.923 eV
  438.   438 a        2.000        -0.218692 H =        -5.951 eV
  437.   437 a        2.000        -0.220197 H =        -5.992 eV
  436.   436 a        2.000        -0.221850 H =        -6.037 eV
  435.   435 a        2.000        -0.222092 H =        -6.043 eV


    ------------------------------------------------------------------------
         total  cpu-time :   8.12 seconds
         total wall-time :   8.46 seconds
    ------------------------------------------------------------------------

   ****  eiger : all done  ****


    2019-02-23 15:25:52.276 

