STARTING ridft ON 32 PROCESSORS!
RUNNING PROGRAM /sopt/TURBOMOLE/7.3-official/bin/em64t-unknown-linux-gnu_smp/ridft_mpi.
           SMPCPUS    set: Shared-memory Parallelization with  32 CPUs.

           SMP Parallelization Reference:
           C. van Wullen, J. Comput. Chem. 32 (2011) 1195--1201
 operating system is UNIX !

 ridft (c-13-38) : TURBOMOLE V7.3 ( 22118 ) 1 Jul 2018 at 20:38:15
 Copyright (C) 2018 TURBOMOLE GmbH, Karlsruhe


    2019-03-12 22:36:28.788 



                                  r i d f t

                        DFT program with RI approximation 
                                for coulomb part 




                                                 
                                 References:     
                                                 
          TURBOMOLE:                             
              R. Ahlrichs, M. Baer, M. Haeser, H. Horn, and
              C. Koelmel
              Electronic structure calculations on workstation
              computers: the program system TURBOMOLE
              Chem. Phys. Lett. 162: 165 (1989)
          Density Functional:                              
              O. Treutler and R. Ahlrichs                      
              Efficient Molecular Numerical Integration Schemes
              J. Chem. Phys. 102: 346 (1995)                   
          Parallel Version:                                
              Performance of parallel TURBOMOLE for Density    
              Functional Calculations                          
              M. v. Arnim and R. Ahlrichs                      
              J. Comp. Chem. 19: 1746 (1998)                   
          RI-J Method:                                     
              Auxiliary Basis Sets to approximate Coulomb      
              Potentials                                       
              Chem. Phys. Lett. 240: 283 (1995)                
              K. Eichkorn, O. Treutler, H. Oehm, M. Haeser     
              and R. Ahlrichs                                  
              Chem. Phys. Lett. 242: 652 (1995)                
                                                           
              Auxiliary Basis Sets for Main Row Atoms and their
              Use to approximate Coulomb Potentials            
              K. Eichkorn, F. Weigend, O. Treutler and         
              R. Ahlrichs                                      
              Theo. Chem. Acc. 97: 119 (1997)                   
                                                           
              Accurate Coulomb-fitting basis sets for H to Rn 
              F. Weigend                                        
              Phys. Chem. Chem. Phys. 8: 1057 (2006)            
                                                           
          Multipole accelerated RI-J (MARI-J):             
              Fast evaluation of the Coulomb potential for     
              electron densities using multipole accelerated   
              resolution of identity approximation             
              M. Sierka, A. Hogekamp and R. Ahlrichs           
              J. Chem. Phys. 118: 9136 (2003)                  
          RI-JK Method:                                     
              A fully direct RI-HF algorithm: Implementation,
              optimised auxiliary basis sets, demonstration of
              accuracy and efficiency                         
              F. Weigend                                      
              Phys. Chem. Chem. Phys. 4: 4285 (2002)           
          Two-component HF and DFT with spin-orbit coupling:  
              Self-consistent treatment of spin-orbit         
              interactions with efficient Hartree-Fock and    
              density functional methods                      
              M. K. Armbruster, F. Weigend, C. van Wüllen and 
              W. Klopper                                      
              Phys. Chem. Chem. Phys. 10: 1748 (2008)         
          Two-component difference density and DIIS algorithm 
              Efficient two-component self-consistent field   
              procedures and gradients: implementation in     
              TURBOMOLE and application to Au20-              
              A. Baldes, F. Weigend                           
              Mol. Phys. 111: 2617 (2013)                     
          Relativistic all-electron 2c calculations           
              An efficient implementation of two-component    
              relativistic exact-decoupling methods for large 
              molecules                                       
              D. Peng, N. Middendorf, F. Weigend, M. Reiher   
              J. Chem. Phys. 138: 184105 (2013)               
          Finite nucleus model and SNSO approximation         
              Efficient implementation of one- and two-       
              component analytical energy gradients in exact  
              two-component theory                            
              Y. J. Franzke, N. Middendorf, F. Weigend        
              J. Chem. Phys. 148: 104110 (2018)               
                                         




              +--------------------------------------------------+
              |      general information about current run       |
              +--------------------------------------------------+

 
 PBE functional
 exchange:    LDA + PBE
 correlation: LDA (PW) + PBE
 A DFT calculation using the RI-J approximation will be carried out.
 Allocatable memory for RI due to $ricore (MB):                  8000


              +--------------------------------------------------+
              | Atomic coordinate, charge and isotop information |
              +--------------------------------------------------+

                    atomic coordinates            atom    charge  isotop
          2.97155929    0.48102820   -0.48467944    n      7.000     0
          1.83182474   -1.70672566    0.08414220    c      6.000     0
          3.04933562   -3.34893714    0.19340440    h      1.000     0
         -0.75240979   -1.94418636    0.53093827    c      6.000     0
         -1.54659868   -3.76383766    1.00828915    h      1.000     0
         -2.25974443    0.20136504    0.36924743    c      6.000     0
         -4.27208430    0.09361448    0.70570461    h      1.000     0
         -1.10951167    2.48954862   -0.22696639    c      6.000     0
         -2.19550694    4.21314446   -0.37881936    h      1.000     0
          1.49013850    2.53167682   -0.62784361    c      6.000     0
          2.43478365    4.28739999   -1.09325739    h      1.000     0
         -1.00859081   -2.86456333    7.26437883    n      7.000     0
         -2.77071903   -1.04923675    7.40393729    c      6.000     0
         -4.66571608   -1.67465068    7.86161548    h      1.000     0
         -2.27560504    1.50391256    7.00826760    c      6.000     0
         -3.78466050    2.87302942    7.15617853    h      1.000     0
          0.17995675    2.23947199    6.42194528    c      6.000     0
          0.63724129    4.20289457    6.08959678    h      1.000     0
          2.03105557    0.38206366    6.26441494    c      6.000     0
          3.96292494    0.84834554    5.79493709    h      1.000     0
          1.34606817   -2.12208379    6.70508584    c      6.000     0
          2.75176130   -3.60656691    6.59841345    h      1.000     0
 
       center of nuclear mass  :   -0.02310682    0.00701422    3.39272139
       center of nuclear charge:   -0.04311212    0.03088723    3.39277347

              +--------------------------------------------------+
              |               basis set information              |
              +--------------------------------------------------+

              we will work with the 1s 3p 5d 7f 9g ... basis set
              ...i.e. with spherical basis functions...

   type   atoms  prim   cont   basis
   ---------------------------------------------------------------------------
    n        2     68     48   def2-QZVP   [7s4p3d2f|15s8p3d2f]
    c       10     68     48   def2-QZVP   [7s4p3d2f|15s8p3d2f]
    h       10     26     23   def2-QZVP   [4s3p2d|7s3p2d]
   ---------------------------------------------------------------------------
   total:   22   1076    806
   ---------------------------------------------------------------------------

   total number of primitive shells          :   68
   total number of contracted shells         :  282
   total number of cartesian basis functions :  934
   total number of SCF-basis functions       :  806


 integral neglect threshold       :  0.36E-11
 integral storage threshold THIZE :  0.10E-04
 integral storage threshold THIME :         5

 RI-J AUXILIARY BASIS SET information:

              we will work with the 1s 3p 5d 7f 9g ... basis set
              ...i.e. with spherical basis functions...

   type   atoms  prim   cont   basis
   ---------------------------------------------------------------------------
    n        2     70     49   def2-QZVP   [6s4p3d1f1g|12s5p4d2f1g]
    c       10     70     49   def2-QZVP   [6s4p3d1f1g|12s5p4d2f1g]
    h       10     16     11   def2-QZVP   [3s1p1d|5s2p1d]
   ---------------------------------------------------------------------------
   total:   22   1000    698
   ---------------------------------------------------------------------------

   total number of primitive shells          :   56
   total number of contracted shells         :  230
   total number of cartesian basis functions :  852
   total number of SCF-basis functions       :  698


 symmetry group of the molecule :   c1 

 the group has the following generators :
   c1(z)

    1 symmetry operations found

 there are 1 real representations :   a   

 maximum number of shells which are related by symmetry :  1


    mo occupation :
   irrep   mo's   occupied
    a      806       42
 
 number of basis functions   :                    806
 number of occupied orbitals :                     42
 
  
           ------------------
           density functional
           ------------------
 PBE functional
 exchange:    LDA + PBE
 correlation: LDA (PW) + PBE

 iterations will be done with small grid
  
 spherical integration : Lebedev's spherical grid
 spherical gridsize    :                     4
    i.e. gridpoints    :                   434
 value for diffuse not defined
 radial integration    : Chebyshev 2nd kind (scaling 3)
 radial gridsize       :                     6
 integration cells     :                    22
 partition function    : becke
 partition sharpness   :                     3
  

 biggest AO integral is expected to be     6.129561670
  
           ------------------------
               RI-J - INFORMATION
           ------------------------
 Contributions to RI integral batches: 
  neglected integral batches:                  9146
  direct contribution:                            0
  memory contribution:                 30757
 Memory core needed for (P|Q) and Cholesky      4 MByte
 Memory core minimum needed except of (P|Q)     3 MByte
 Total minimum memory core needed (sum)         7 MByte
  
 ****************************************
 Memory allocated for RI-J  2275 MByte
 ****************************************
                                            

          ------------------------
          nuclear repulsion energy  :   637.141568732    
          ------------------------

  _________________________________
 |                                 |
 |         DFTD3 V3.1 Rev 0        |
 | S.Grimme, University Bonn       |
 |            June  2014           |
 |   see standalone version        |
 |       dftd3 -h for options      |
 |_________________________________|
 
 Please cite DFT-D3 work done with this code as:
 S. Grimme, J. Antony, S. Ehrlich and H. Krieg,
 J. Chem. Phys, 132 (2010), 154104.
 If used with BJ-damping cite also
 S. Grimme, S. Ehrlich and L. Goerigk,
 J. Comput. Chem. 32 (2011), 1456-1465
 For DFT-D2 the reference is
 S. Grimme, J. Comput. Chem., 27 (2006), 1787-1799
 
C6 coefficients used:
                     2  C6 for element                      1
Z=  1 CN= 0.912     C6(AA)=    3.03
Z=  1 CN= 0.000     C6(AA)=    7.59
                     5  C6 for element                      6
Z=  6 CN= 0.000     C6(AA)=   49.11
Z=  6 CN= 0.987     C6(AA)=   43.25
Z=  6 CN= 1.998     C6(AA)=   29.36
Z=  6 CN= 2.999     C6(AA)=   25.78
Z=  6 CN= 3.984     C6(AA)=   18.21
                     4  C6 for element                      7
Z=  7 CN= 0.000     C6(AA)=   25.27
Z=  7 CN= 0.994     C6(AA)=   22.12
Z=  7 CN= 2.014     C6(AA)=   19.68
Z=  7 CN= 2.990     C6(AA)=   15.58

#           XYZ [au]              R0(AA) [Ang.]  CN          C6(AA)     C8(AA)   C10(AA) [au]
  1   2.97156   0.48103  -0.48468   n   0.533  2.105        19.5       430.4     11630.2
  2   1.83182  -1.70673   0.08414   c   0.610  3.204        25.0       723.3     25625.0
  3   3.04934  -3.34894   0.19340   h   0.395  1.004         3.1        37.3       552.9
  4  -0.75241  -1.94419   0.53094   c   0.610  3.133        25.3       732.7     25958.8
  5  -1.54660  -3.76384   1.00829   h   0.395  1.004         3.1        37.3       552.9
  6  -2.25974   0.20137   0.36925   c   0.610  3.145        25.3       731.3     25908.8
  7  -4.27208   0.09361   0.70570   h   0.395  1.003         3.1        37.3       553.0
  8  -1.10951   2.48955  -0.22697   c   0.610  3.131        25.3       732.9     25965.1
  9  -2.19551   4.21314  -0.37882   h   0.395  1.003         3.1        37.3       553.0
 10   1.49014   2.53168  -0.62784   c   0.610  3.201        25.0       723.6     25637.9
 11   2.43478   4.28740  -1.09326   h   0.395  1.003         3.1        37.3       552.9
 12  -1.00859  -2.86456   7.26438   n   0.533  2.105        19.5       430.4     11630.2
 13  -2.77072  -1.04924   7.40394   c   0.610  3.201        25.0       723.6     25637.7
 14  -4.66572  -1.67465   7.86162   h   0.395  1.003         3.1        37.3       552.9
 15  -2.27561   1.50391   7.00827   c   0.610  3.131        25.3       732.9     25964.9
 16  -3.78466   2.87303   7.15618   h   0.395  1.003         3.1        37.3       553.0
 17   0.17996   2.23947   6.42195   c   0.610  3.145        25.3       731.3     25908.9
 18   0.63724   4.20289   6.08960   h   0.395  1.003         3.1        37.3       553.0
 19   2.03106   0.38206   6.26441   c   0.610  3.133        25.3       732.7     25958.8
 20   3.96292   0.84835   5.79494   h   0.395  1.004         3.1        37.3       552.9
 21   1.34607  -2.12208   6.70509   c   0.610  3.204        25.0       723.3     25624.9
 22   2.75176  -3.60657   6.59841   h   0.395  1.004         3.1        37.3       552.9

molecular C6(AA) [au] =      5859.96

           DFT-D V3(BJ)
 DF pbe                                               
 parameters
 s6       :    1.0000
 s8       :    0.7875
 a1       :    0.4289
 a2       :    4.4407
 k1-k3    :   16.0000    1.3333   -4.0000
 
 Edisp /kcal,au:   -16.6541 -0.02653996

 E6    /kcal :   -11.7355
 E8    /kcal :    -4.9186
 % E8        : 29.53
 nuclear repulsion energy                  =     637.141568732
 empirical dispersive energy correction    =      -0.026539964
 nuclear repulsion + dispersion correction =     637.115028769


         -----------------
         -S,T+V- integrals
         -----------------

 1e-integrals will be neglected if expon. factor < 0.357812E-12
 Difference densities >>NOT<< switched on in parallel ridft!

 DIIS switched on: error vector is FDS-SDF
 Max. Iterations for DIIS is     :   4
 DIIS matrix (see manual) 
    Scaling factor of diagonals  :  1.200
    threshold for scaling factor :  0.000

 scf convergence criterion : increment of total energy < .1000000D-06
                  and increment of one-electron energy < .1000000D-03

  MOs are in ASCII format !


 automatic virtual orbital shift switched on 
      shift if e(lumo)-e(homo) < 0.10000000    


 reading orbital data $scfmo  from file mos
 orbital characterization : expanded
 mo provided and orthogonalized by Cholesky decomposition

 DSCF restart information will be dumped onto file mos


 Starting SCF iterations

          Overall gridpoints after grid construction =         59873

 ITERATION  ENERGY          1e-ENERGY        2e-ENERGY     NORM[dD(SAO)]  TOL
   1  -494.19297106121    -1914.4025066     783.09450681    0.000D+00 0.357D-11
                            Exc = -69.5533259435     Coul =  852.647832755    
                              N = 83.999929031    
                            current damping = 0.700
 
          max. resid. norm for Fia-block=  5.829D-01 for orbital     13a         
          max. resid. fock norm         =  5.464D+01 for orbital    679a         

 ITERATION  ENERGY          1e-ENERGY        2e-ENERGY     NORM[dD(SAO)]  TOL
   2  -495.80522587144    -1928.0824272     795.16217257    0.000D+00 0.357D-11
                            Exc = -70.5580296002     Coul =  865.720202174    
                              N = 83.999946014    
                            current damping = 0.650
 
          Norm of current diis error:  4.0254    
          max. resid. norm for Fia-block=  1.369D-01 for orbital      1a         
          max. resid. fock norm         =  2.087D-01 for orbital    753a         

 ITERATION  ENERGY          1e-ENERGY        2e-ENERGY     NORM[dD(SAO)]  TOL
   3  -496.06837991817    -1931.0156841     797.83227538    0.000D+00 0.357D-11
                            Exc = -70.9235805652     Coul =  868.755855948    
                              N = 83.999954043    
                            current damping = 0.550
 
          Norm of current diis error:  1.9939    
          max. resid. norm for Fia-block=  5.630D-02 for orbital     41a         
          max. resid. fock norm         =  6.092D-02 for orbital     13a         

 ITERATION  ENERGY          1e-ENERGY        2e-ENERGY     NORM[dD(SAO)]  TOL
   4  -496.15701447670    -1932.6003448     799.32830153    0.000D+00 0.357D-11
                            Exc = -71.0358827583     Coul =  870.364184287    
                              N = 83.999963773    
                            current damping = 0.450
 
          Norm of current diis error: 0.79165    
          max. resid. norm for Fia-block=  2.825D-02 for orbital     14a         
          max. resid. fock norm         =  5.052D-02 for orbital    776a         

 ITERATION  ENERGY          1e-ENERGY        2e-ENERGY     NORM[dD(SAO)]  TOL
   5  -496.16777759658    -1933.8230663     800.54025989    0.000D+00 0.357D-11
                            Exc = -71.1803862397     Coul =  871.720646131    
                              N = 83.999970755    
                            current damping = 0.350
 
          Norm of current diis error: 0.48811    
          max. resid. norm for Fia-block=  1.412D-02 for orbital     41a         
          max. resid. fock norm         =  1.510D-02 for orbital     41a         
          mo-orthogonalization: Cholesky decomposition

 ITERATION  ENERGY          1e-ENERGY        2e-ENERGY     NORM[dD(SAO)]  TOL
   6  -496.17377226234    -1933.5794085     800.29060742    0.000D+00 0.357D-11
                            Exc = -71.1529560347     Coul =  871.443563456    
                              N = 83.999970756    
                            current damping = 0.400
 
          Norm of current diis error: 0.19522    
          max. resid. norm for Fia-block=  3.724D-03 for orbital     40a         
          max. resid. fock norm         =  9.003D-03 for orbital    800a         

 ITERATION  ENERGY          1e-ENERGY        2e-ENERGY     NORM[dD(SAO)]  TOL
   7  -496.17452777585    -1933.6968868     800.40733027    0.000D+00 0.357D-11
                            Exc = -71.1646405321     Coul =  871.571970802    
                              N = 83.999972436    
                            current damping = 0.450
 
          Norm of current diis error: 0.89367E-01
          max. resid. norm for Fia-block=  1.646D-03 for orbital     25a         
          max. resid. fock norm         =  4.466D-03 for orbital    800a         

 ITERATION  ENERGY          1e-ENERGY        2e-ENERGY     NORM[dD(SAO)]  TOL
   8  -496.17469258485    -1933.7628503     800.47312894    0.000D+00 0.357D-11
                            Exc = -71.1719549857     Coul =  871.645083927    
                              N = 83.999972091    
                            current damping = 0.300
 
          Norm of current diis error: 0.25337E-01
          max. resid. norm for Fia-block=  6.516D-04 for orbital     40a         
          max. resid. fock norm         =  1.439D-03 for orbital    802a         

 ITERATION  ENERGY          1e-ENERGY        2e-ENERGY     NORM[dD(SAO)]  TOL
   9  -496.17469972067    -1933.7593260     800.46959752    0.000D+00 0.357D-11
                            Exc = -71.1716219404     Coul =  871.641219458    
                              N = 83.999972406    
                            current damping = 0.350
 
          Norm of current diis error: 0.19398E-01
          max. resid. norm for Fia-block=  3.510D-04 for orbital     39a         
          max. resid. fock norm         =  7.986D-04 for orbital    799a         

 ITERATION  ENERGY          1e-ENERGY        2e-ENERGY     NORM[dD(SAO)]  TOL
  10  -496.17470795457    -1933.7495454     800.45980871    0.000D+00 0.357D-11
                            Exc = -71.1709214841     Coul =  871.630730193    
                              N = 83.999972280    
                            current damping = 0.200
 
          Norm of current diis error: 0.58093E-02
          max. resid. norm for Fia-block=  1.549D-04 for orbital     37a         
          max. resid. fock norm         =  2.610D-04 for orbital    775a         
          mo-orthogonalization: Cholesky decomposition

 ITERATION  ENERGY          1e-ENERGY        2e-ENERGY     NORM[dD(SAO)]  TOL
  11  -496.17470813724    -1933.7545644     800.46482745    0.000D+00 0.357D-11
                            Exc = -71.1714666390     Coul =  871.636294085    
                              N = 83.999972299    
                            current damping = 0.250
 
          Norm of current diis error: 0.50388E-02
          max. resid. norm for Fia-block=  8.694D-05 for orbital     37a         
          max. resid. fock norm         =  1.568D-04 for orbital    800a         

 ITERATION  ENERGY          1e-ENERGY        2e-ENERGY     NORM[dD(SAO)]  TOL
  12  -496.17470874059    -1933.7537525     800.46401500    0.000D+00 0.357D-11
                            Exc = -71.1712365859     Coul =  871.635251591    
                              N = 83.999972281    
                            current damping = 0.300
 
          Norm of current diis error: 0.93142E-03
          max. resid. norm for Fia-block=  1.951D-05 for orbital     40a         
          max. resid. fock norm         =  4.560D-05 for orbital    800a         

 ITERATION  ENERGY          1e-ENERGY        2e-ENERGY     NORM[dD(SAO)]  TOL
  13  -496.17470875757    -1933.7531499     800.46341234    0.000D+00 0.357D-11
                            Exc = -71.1712235770     Coul =  871.634635912    
                              N = 83.999972292    
                            current damping = 0.150
 
          Norm of current diis error: 0.28905E-03
          max. resid. norm for Fia-block=  7.100D-06 for orbital     40a         
          max. resid. fock norm         =  1.458D-05 for orbital    797a         

 ENERGY CONVERGED !

          Overall gridpoints after grid construction =        214465

 ITERATION  ENERGY          1e-ENERGY        2e-ENERGY     NORM[dD(SAO)]  TOL
  14  -496.17455534846    -1933.7532338     800.46364967    0.000D+00 0.357D-11
                            Exc = -71.1710776252     Coul =  871.634727292    
                              N = 84.000008486    
                            current damping = 0.200
 
          Norm of current diis error: 0.18261E-03
          max. resid. norm for Fia-block=  2.599D-06 for orbital     37a         
          max. resid. fock norm         =  6.356D-06 for orbital    803a         

 End of SCF iterations

   convergence criteria satisfied after    14 iterations


                  ------------------------------------------ 
                 |  total energy      =   -496.17455534846  |
                  ------------------------------------------ 
                 :  kinetic energy    =    494.08934421857  :
                 :  potential energy  =   -990.26389956703  :
                 :  virial theorem    =      1.99579742430  :
                 :  wavefunction norm =      1.00000000000  :
                  .......................................... 


 orbitals $scfmo  will be written to file mos

    irrep                 38a         39a         40a         41a         42a   
 eigenvalues H         -0.26482    -0.24968    -0.23865    -0.21841    -0.21758
            eV          -7.2061     -6.7941     -6.4940     -5.9432     -5.9208
 occupation              2.0000      2.0000      2.0000      2.0000      2.0000 

    irrep                 43a         44a         45a         46a         47a   
 eigenvalues H         -0.06938    -0.06599    -0.05721    -0.05176    -0.00611
            eV          -1.8879     -1.7958     -1.5569     -1.4086     -0.1664
 
 
 
 
 ==============================================================================
                           electrostatic moments
 ==============================================================================

 reference point for electrostatic moments:    0.00000   0.00000   0.00000

 
              nuc           elec       ->  total
 ------------------------------------------------------------------------------
                          charge      
 ------------------------------------------------------------------------------
          84.000000     -84.000000      -0.000000
 
 ------------------------------------------------------------------------------
                       dipole moment  
 ------------------------------------------------------------------------------
   x      -3.621418       2.993680      -0.627738
   y       2.594527      -1.845169       0.749358
   z     284.992972    -284.990348       0.002624
 
   | dipole moment | =     0.9775 a.u. =     2.4847 debye 
 
 ------------------------------------------------------------------------------
                     quadrupole moment
 ------------------------------------------------------------------------------
  xx     357.223539    -408.070337     -50.846798
  yy     357.238823    -407.302039     -50.063215
  zz    1982.638465   -2040.788298     -58.149832
  xy      -0.121528      -2.213437      -2.334965
  xz    -177.872397     178.832631       0.960234
  yz    -131.479663     136.599276       5.119613
 
     1/3  trace=     -53.019949
     anisotropy=      12.546892
 
 ==============================================================================
 


    ------------------------------------------------------------------------
         total  cpu-time :  6 minutes and  4 seconds
         total wall-time :  1 minutes and 21 seconds
    ------------------------------------------------------------------------

   ****  ridft : all done  ****


    2019-03-12 22:37:49.713 

