
   OpenMP run-time library returned nthreads = 30

 ricc2 (c-15-42.local) : TURBOMOLE V7.2 ( 21471 ) 11 Oct 2017 at 17:04:51
 Copyright (C) 2017 TURBOMOLE GmbH, Karlsruhe


    2018-04-10 00:43:35.310 



                              R I C C 2 - PROGRAM

                          the quantum chemistry groups
                             at the universities in
                           Karlsruhe, Bochum & Mainz
                                   Germany



   *-----------------------------------------------------------------------*
   |                     program will use 30 thread(s)                     |
   *-----------------------------------------------------------------------*


              +--------------------------------------------------+
              | Atomic coordinate, charge and isotop information |
              +--------------------------------------------------+

                    atomic coordinates            atom    charge  isotop
        -10.49964130    9.07910480    0.00000000    c      6.000     0
          2.62586950  -13.63057277    0.00000000    c      6.000     0
          0.28265936  -10.28451263   -2.38172994    c      6.000     0
          0.28265936  -10.28451263    2.38172994    c      6.000     0
         -8.76595169    5.37900619    2.38167817    c      6.000     0
         -8.76595169    5.37900619   -2.38167817    c      6.000     0
          1.88671320  -10.82152476    0.00000000    c      6.000     0
         -8.43321781    7.03764874    0.00000000    c      6.000     0
          5.58516377    3.22863502    0.00000000    c      6.000     0
          3.50107814    7.06918865    0.00000000    c      6.000     0
          7.87144177   -0.49520099    0.00000000    c      6.000     0
          5.87454110   -4.76788865    0.00000000    c      6.000     0
         -1.19768736    7.47290876    0.00000000    c      6.000     0
          5.60938571   -2.03388260    0.00000000    c      6.000     0
          1.03850062    5.87789952    0.00000000    c      6.000     0
         -0.80683004   10.12174826    0.00000000    c      6.000     0
          8.36483599   -5.75151956    0.00000000    c      6.000     0
         -5.76831828    8.16669482    0.00000000    c      6.000     0
          4.19441596   -9.07488372    0.00000000    c      6.000     0
          3.22730485    1.86624501    0.00000000    c      6.000     0
          3.83559177   -6.46114984    0.00000000    c      6.000     0
         -3.68257007    6.55126691    0.00000000    c      6.000     0
          1.73878715   11.06068092    0.00000000    c      6.000     0
         10.44944224   -4.01498742    0.00000000    c      6.000     0
          3.30642068   -0.78909893    0.00000000    c      6.000     0
          0.96638149    3.26104042    0.00000000    c      6.000     0
         -5.33310343   10.79722760    0.00000000    c      6.000     0
          6.69104918  -10.01069643    0.00000000    c      6.000     0
         -2.89835004   11.75882639    0.00000000    c      6.000     0
          8.73948305   -8.38093117    0.00000000    c      6.000     0
          5.66848689    5.78370386    0.00000000    n      7.000     0
          7.84019099    2.02452109    0.00000000    n      7.000     0
          3.78120867    9.67652655    0.00000000    n      7.000     0
         10.27025049   -1.55432551    0.00000000    n      7.000     0
          1.92116253   -5.72491732    0.00000000    h      1.000     0
         -3.99993670    4.52488161    0.00000000    h      1.000     0
         -6.91591921   12.09722151    0.00000000    h      1.000     0
          7.02757178  -12.03110359    0.00000000    h      1.000     0
          1.53645343   -1.82894068    0.00000000    h      1.000     0
         -0.81841822    2.24707185    0.00000000    h      1.000     0
         -2.58391834   13.78902554    0.00000000    h      1.000     0
         10.65567654   -9.12173456    0.00000000    h      1.000     0
         12.35622282   -4.80071036    0.00000000    h      1.000     0
          2.01032301   13.10501484    0.00000000    h      1.000     0
          0.90745001  -14.78326896    0.00000000    h      1.000     0
        -12.35581218    8.16463880    0.00000000    h      1.000     0
         -7.38509811    3.83950501   -2.42904415    h      1.000     0
         -7.38509811    3.83950501    2.42904415    h      1.000     0
         -0.36521733   -8.32073754   -2.42976848    h      1.000     0
         -0.36521733   -8.32073754    2.42976848    h      1.000     0
          3.72704043  -14.12997179   -1.68037194    h      1.000     0
          3.72704043  -14.12997179    1.68037194    h      1.000     0
        -10.38334605   10.28291411    1.68013289    h      1.000     0
        -10.38334605   10.28291411   -1.68013289    h      1.000     0
         -8.53663722    6.50964588    4.09996746    h      1.000     0
         -8.53663722    6.50964588   -4.09996746    h      1.000     0
          1.37770965  -10.64937034   -4.09963997    h      1.000     0
          1.37770965  -10.64937034    4.09963997    h      1.000     0
         -1.38392628  -11.51348175   -2.39285401    h      1.000     0
         -1.38392628  -11.51348175    2.39285401    h      1.000     0
        -10.66107247    4.54481066   -2.39361084    h      1.000     0
        -10.66107247    4.54481066    2.39361084    h      1.000     0
 
       center of nuclear mass  :    1.54630475    0.89407930    0.00000000
       center of nuclear charge:    1.33458195    0.77165841    0.00000000

              +--------------------------------------------------+
              |               basis set information              |
              +--------------------------------------------------+

              we will work with the 1s 3p 5d 7f 9g ... basis set
              ...i.e. with spherical basis functions...

   type   atoms  prim   cont   basis
   ---------------------------------------------------------------------------
    c       30     77     55   cc-pVQZ   [5s4p3d2f1g|21s6p3d2f1g]
    n        4     77     55   cc-pVQZ   [5s4p3d2f1g|21s6p3d2f1g]
    h       28     32     30   cc-pVQZ   [4s3p2d1f|6s3p2d1f]
   ---------------------------------------------------------------------------
   total:   62   3514   2710
   ---------------------------------------------------------------------------

   total number of primitive shells          :   78
   total number of contracted shells         :  790
   total number of cartesian basis functions : 3360
   total number of SCF-basis functions       : 2710


 symmetry group of the molecule :   c1 

 the group has the following generators :
   c1(z)

    1 symmetry operations found

 there are 1 real representations :   a   


   =========================================================================


     restricted closed shell calculation for the wavefunction models:
               MP2        - Second Order Moeller Plesset PT


     global parameters for ricc2 program:

        hard restart (reuse of interm.) :  disabled
        soft restart (reuse of vectors) :  disabled
        threshold for vector function   :    0.100000E-05
        convergence threshold energy    :    0.100000E-06
        linear dependence threshold     :    0.100000E-13
        global print level              :      1
        maximum number of iterations    :   300
        maximum number DIIS vectors     :    10
        max. dim. of reduced space      :   100
        core memory limit (MB)          : *****


     MP2 energy only: Energy will be calculated directly from T2 amplitudes!

     Scratch Directory : 


   =========================================================================

    der. integral neglect threshold  :  0.10E-07
    integral neglect threshold       :  0.99E-12
    integral storage threshold THIZE :  0.10E-04
    integral storage threshold THIME :         5


                  +------------------------------------------+
                  |     Auxiliary basis set information      |
                  +------------------------------------------+

              we will work with the 1s 3p 5d 7f 9g ... basis set
              ...i.e. with spherical basis functions...

   type   atoms  prim   cont   basis
   ---------------------------------------------------------------------------
    c       30    132    132   cc-pVQZ   [8s7p6d5f3g1h|8s7p6d5f3g1h]
    n        4    132    132   cc-pVQZ   [8s7p6d5f3g1h|8s7p6d5f3g1h]
    h       28     55     55   cc-pVQZ   [5s4p3d2f1g|5s4p3d2f1g]
   ---------------------------------------------------------------------------
   total:   62   6028   6028
   ---------------------------------------------------------------------------

   total number of primitive shells          :   75
   total number of contracted shells         : 1440
   total number of cartesian basis functions : 8114
   total number of SCF-basis functions       : 6028


 maximum number of shells which are related by symmetry :  1


 The symmetry information takes   1 MB

*---------------------------------------------------------------------*
|               simplified C1 algorithm will be applied               |
*---------------------------------------------------------------------*
  MOs are in ASCII format !


 reading orbital data $scfmo  from file mos
 orbital characterization : scfconv=7



              +--------------------------------------------+
              | list of orbitals that will be kept frozen: |
              +--------------------------------------------+
              |   irrep   index      energy     occ/vir    |
              +--------------------------------------------+
              |   a         1      -15.5586     occupied   |
              |   a         2      -15.5586     occupied   |
              |   a         3      -15.5441     occupied   |
              |   a         4      -15.5440     occupied   |
              |   a         5      -11.3124     occupied   |
              |   a         6      -11.3124     occupied   |
              |   a         7      -11.3040     occupied   |
              |   a         8      -11.2951     occupied   |
              |   a         9      -11.2951     occupied   |
              |   a        10      -11.2733     occupied   |
              |   a        11      -11.2733     occupied   |
              |   a        12      -11.2706     occupied   |
              |   a        13      -11.2705     occupied   |
              |   a        14      -11.2637     occupied   |
              |   a        15      -11.2637     occupied   |
              |   a        16      -11.2597     occupied   |
              |   a        17      -11.2597     occupied   |
              |   a        18      -11.2589     occupied   |
              |   a        19      -11.2589     occupied   |
              |   a        20      -11.2571     occupied   |
              |   a        21      -11.2571     occupied   |
              |   a        22      -11.2526     occupied   |
              |   a        23      -11.2515     occupied   |
              |   a        24      -11.2515     occupied   |
              |   a        25      -11.2464     occupied   |
              |   a        26      -11.2464     occupied   |
              |   a        27      -11.2451     occupied   |
              |   a        28      -11.2450     occupied   |
              |   a        29      -11.2288     occupied   |
              |   a        30      -11.2288     occupied   |
              |   a        31      -11.2288     occupied   |
              |   a        32      -11.2288     occupied   |
              |   a        33      -11.2279     occupied   |
              |   a        34      -11.2279     occupied   |
              +--------------------------------------------+



   Molecular Orbital Statistic:
   ============================

   -----------------------------
   orbitals in total:
   -----------------------------
    frozen occupied :     34
    active occupied :     84
    active virtual  :   2592
    frozen virtual  :      0
    all together    :   2710
   -----------------------------


     time in riccmos       cpu: 34.95 sec    wall:  9.99 sec    ratio:  3.5

     total memory allocated for calculation of (Q|P)**(-1/2) : 416 MiB


     calculation of (P|Q) ...
     time in lp2sym        cpu: 31.93 sec    wall:  1.18 sec    ratio: 27.0


     calculation of the Cholesky decomposition of (P|Q)**(-1) ...
     time in invmetri      cpu: 11 min 53 s  wall:  0 min 27 s  ratio: 26.4

   threshold for RMS(d[D]) in SCF was     :  0.10E-06
   integral neglect threshold             :  0.99E-12
   derivative integral neglect threshold  :  0.10E-07


   =========================================================================

     Energy of reference wave function is -1370.7008841740001
     Maximum orbital residual is           0.5685859050217E-05


     Number of symmetry-nonredundant auxiliary basis functions:     6028

     Block lengths for integral files:
        frozen occupied (BOI):        2 MiB
        active occupied (BJI):        4 MiB
        active virtual  (BAI):      120 MiB
        frozen virtual  (BGI):        0 MiB
               general  (BTI):      125 MiB

   =========================================================================




   **************************************************************************
   *                                                                        *
   *          OPTIMIZATION OF THE GROUND STATE CLUSTER AMPLITUDES           *
   *                                                                        *
   **************************************************************************


   Iter.   MP2 energy       Norm(Omega)    Norm(t1)  Norm(t2)     cpu    wall
   ...........................................................................
    1  -1376.6574156638     ------          0.00000   0.83146 1219.51   49.29
   ...........................................................................


     time in total         cpu: 20 h 19 min  wall:  0 h 49 min  ratio: 24.7


     **********************************************************************
     *                                                                    *
     *   RHF  energy                             :  -1370.7008841740      *
     *   MP2 correlation energy (doubles)        :     -5.9565314898      *
     *                                                                    *
     *   Final MP2 energy                        :  -1376.6574156638      *
     *                                                                    *
     *    E(S)   =     -3.7073918498      E(T)   =     -2.2491396400      *
     *    E(OS)  =     -4.4571050631      E(SS)  =     -1.4994264267      *
     *                                                                    *
     *   SCS-MP2 energy                          :  -1376.5492190586      *
     *   (computed with  C(OS) =   1.2000  and  C(SS) =   0.3333)         *
     *                                                                    *
     *   SOS-MP2 energy                          :  -1376.4951207561      *
     *   (computed with  C(OS) =   1.3000)                                *
     *                                                                    *
     *   Norm of MP1 T2 amplitudes               :      0.8314609573      *
     *                                                                    *
     **********************************************************************



    ------------------------------------------------------------------------
         total  cpu-time :   2 days  4 hours 46 minutes and 28 seconds
         total wall-time :  1 hours 55 minutes and 57 seconds
    ------------------------------------------------------------------------

   ****  ricc2 : all done  ****


    2018-04-10 02:39:32.397 

