
 eiger (gplogin2.gp.local) : TURBOMOLE V7.3 ( 22118 ) 1 Jul 2018 at 20:38:15
 Copyright (C) 2018 TURBOMOLE GmbH, Karlsruhe


    2019-05-14 12:32:51.249 

                                                                                
  
Total energy =   -304.7763436990 H =     -8293.3909989 eV
 
 HOMO-LUMO Separation
   HOMO:    23.    23 a     -0.41900816 H =    -11.40180 eV
   LUMO:    24.    24 a     +0.11610722 H =     +3.15944 eV
   Gap :                    +0.53511539 H =    +14.56124 eV
 
Number of MOs=    510, Electrons=     46.00, Symmetry: c1   
 
   Nr.   Orbital    Occupation       Energy
   40.    40 a                     +0.367929 H =       +10.012 eV
   39.    39 a                     +0.338735 H =        +9.217 eV
   38.    38 a                     +0.329068 H =        +8.954 eV
   37.    37 a                     +0.305046 H =        +8.301 eV
   36.    36 a                     +0.293190 H =        +7.978 eV
   35.    35 a                     +0.284997 H =        +7.755 eV
   34.    34 a                     +0.270767 H =        +7.368 eV
   33.    33 a                     +0.224409 H =        +6.106 eV
   32.    32 a                     +0.202724 H =        +5.516 eV
   31.    31 a                     +0.198869 H =        +5.412 eV
   30.    30 a                     +0.184708 H =        +5.026 eV
   29.    29 a                     +0.175414 H =        +4.773 eV
   28.    28 a                     +0.163166 H =        +4.440 eV
   27.    27 a                     +0.152399 H =        +4.147 eV
   26.    26 a                     +0.145041 H =        +3.947 eV
   25.    25 a                     +0.127271 H =        +3.463 eV
   24.    24 a                     +0.116107 H =        +3.159 eV
   23.    23 a        2.000        -0.419008 H =       -11.402 eV
   22.    22 a        2.000        -0.419360 H =       -11.411 eV
   21.    21 a        2.000        -0.456266 H =       -12.416 eV
   20.    20 a        2.000        -0.480078 H =       -13.064 eV
   19.    19 a        2.000        -0.557605 H =       -15.173 eV
   18.    18 a        2.000        -0.570975 H =       -15.537 eV
   17.    17 a        2.000        -0.580390 H =       -15.793 eV
   16.    16 a        2.000        -0.646770 H =       -17.600 eV
   15.    15 a        2.000        -0.673929 H =       -18.339 eV
   14.    14 a        2.000        -0.688702 H =       -18.741 eV
   13.    13 a        2.000        -0.704691 H =       -19.176 eV
   12.    12 a        2.000        -0.775525 H =       -21.103 eV
   11.    11 a        2.000        -0.818310 H =       -22.267 eV
   10.    10 a        2.000        -1.025033 H =       -27.893 eV
    9.     9 a        2.000        -1.040156 H =       -28.304 eV
    8.     8 a        2.000        -1.355801 H =       -36.893 eV


    ------------------------------------------------------------------------
         total  cpu-time :   0.15 seconds
         total wall-time :   0.16 seconds
    ------------------------------------------------------------------------

   ****  eiger : all done  ****


    2019-05-14 12:32:51.395 

