           Doing BLAS/Lapack in the master proc. with  8 CPUs.
           SMPCPUS    set: Shared-memory Parallelization with   8 CPUs.

           SMP Parallelization Reference:
           C. van Wullen, J. Comput. Chem. 32 (2011) 1195--1201
 operating system is UNIX !

 ridft (c-18-414.gp.local) : TURBOMOLE V7.2 ( 21454 ) 4 Oct 2017 at 12:48:15
 Copyright (C) 2017 TURBOMOLE GmbH, Karlsruhe


    2018-04-24 21:21:54.956 



                                  r i d f t

                        DFT program with RI approximation 
                                for coulomb part 




                                                 
                                 References:     
                                                 
          TURBOMOLE:                             
              R. Ahlrichs, M. Baer, M. Haeser, H. Horn, and
              C. Koelmel
              Electronic structure calculations on workstation
              computers: the program system TURBOMOLE
              Chem. Phys. Lett. 162: 165 (1989)
          Density Functional:                              
              O. Treutler and R. Ahlrichs                      
              Efficient Molecular Numerical Integration Schemes
              J. Chem. Phys. 102: 346 (1995)                   
          Parallel Version:                                
              Performance of parallel TURBOMOLE for Density    
              Functional Calculations                          
              M. v. Arnim and R. Ahlrichs                      
              J. Comp. Chem. 19: 1746 (1998)                   
          RI-J Method:                                     
              Auxiliary Basis Sets to approximate Coulomb      
              Potentials                                       
              Chem. Phys. Lett. 240: 283 (1995)                
              K. Eichkorn, O. Treutler, H. Oehm, M. Haeser     
              and R. Ahlrichs                                  
              Chem. Phys. Lett. 242: 652 (1995)                
                                                           
              Auxiliary Basis Sets for Main Row Atoms and their
              Use to approximate Coulomb Potentials            
              K. Eichkorn, F. Weigend, O. Treutler and         
              R. Ahlrichs                                      
              Theo. Chem. Acc. 97: 119 (1997)                   
                                                           
              Accurate Coulomb-fitting basis sets for H to Rn 
              F. Weigend                                        
              Phys. Chem. Chem. Phys. 8: 1057 (2006)            
                                                           
          Multipole accelerated RI-J (MARI-J):             
              Fast evaluation of the Coulomb potential for     
              electron densities using multipole accelerated   
              resolution of identity approximation             
              M. Sierka, A. Hogekamp and R. Ahlrichs           
              J. Chem. Phys. 118: 9136 (2003)                  
          RI-JK Method:                                     
              A fully direct RI-HF algorithm: Implementation,
              optimised auxiliary basis sets, demonstration of
              accuracy and efficiency                         
              F. Weigend                                      
              Phys. Chem. Chem. Phys. 4: 4285 (2002)           
          Two-component HF and DFT with spin-orbit coupling:  
              Self-consistent treatment of spin-orbit         
              interactions with efficient Hartree-Fock and    
              density functional methods                      
              M. K. Armbruster, F. Weigend, C. van Wüllen and 
              W. Klopper                                      
              Phys. Chem. Chem. Phys. 10: 1748 (2008)         
          Relativistic all-electron 2c calculations           
              An efficient implementation of two-component    
              relativistic exact-decoupling methods for large 
              molecules                                       
              D. Peng, N. Middendorf, F. Weigend, M. Reiher   
              J. Chem. Phys. 138, 184105 (2013)               
                                         




              +--------------------------------------------------+
              |      general information about current run       |
              +--------------------------------------------------+

 

 DENSITY CONVERGENCE CHECK SWITCHED ON !
 SCF CONVERGENCE IF RMS(delta[D]) <     0.1000000000E-06

 TPSS meta-GGA functional
 exchange:    LDA + TPSS
 correlation: LDA (PW) + TPSS
 A DFT calculation using the RI-J approximation will be carried out.
 Allocatable memory for RI due to $ricore (MB):                   500


              +--------------------------------------------------+
              | Atomic coordinate, charge and isotop information |
              +--------------------------------------------------+

                    atomic coordinates            atom    charge  isotop
          3.07971469    0.95055591    0.51043750    c      6.000     0
          3.10212411    2.75756002   -0.46880866    h      1.000     0
          4.37531918   -0.34686812   -0.41117861    h      1.000     0
          3.72227981    1.22711302    2.44526980    h      1.000     0
          0.49478276   -0.25107132    0.59443642    c      6.000     0
          0.18756034   -2.47481562    1.15620995    o      8.000     0
         -1.46170742    1.32755556    0.04171741    n      7.000     0
         -1.07527567    3.14933587   -0.31334369    h      1.000     0
         -4.06293413    0.50260791    0.17962467    c      6.000     0
         -4.05296672   -1.54845568    0.19069624    h      1.000     0
         -4.98990345    1.16373181    1.89653750    h      1.000     0
         -5.11689448    1.17304958   -1.45180207    h      1.000     0
         -0.08646646    0.97887259    7.13601528    c      6.000     0
         -0.09569128    2.38137783    8.62111811    h      1.000     0
         -1.31201575    1.29590937    5.53223577    h      1.000     0
          1.36580754   -1.07518777    7.26793633    c      6.000     0
          2.58525720   -1.39989118    8.87444517    h      1.000     0
          1.35614729   -2.46451467    5.77068878    h      1.000     0
 
       center of nuclear mass  :   -0.09378948   -0.00268911    2.35739865
       center of nuclear charge:   -0.09799398    0.06281028    2.39925466

              +--------------------------------------------------+
              |               basis set information              |
              +--------------------------------------------------+

              we will work with the 1s 3p 5d 7f 9g ... basis set
              ...i.e. with spherical basis functions...

   type   atoms  prim   cont   basis
   ---------------------------------------------------------------------------
    c        5     50     30   cc-pVTZ   [4s3p2d1f|18s5p2d1f]
    h       11     16     14   cc-pVTZ   [3s2p1d|5s2p1d]
    o        1     50     30   cc-pVTZ   [4s3p2d1f|18s5p2d1f]
    n        1     50     30   cc-pVTZ   [4s3p2d1f|18s5p2d1f]
   ---------------------------------------------------------------------------
   total:   18    526    364
   ---------------------------------------------------------------------------

   total number of primitive shells          :   86
   total number of contracted shells         :  136
   total number of cartesian basis functions :  410
   total number of SCF-basis functions       :  364


 integral neglect threshold       :  0.81E-13
 integral storage threshold THIZE :  0.10E-04
 integral storage threshold THIME :         5

 RI-J AUXILIARY BASIS SET information:

              we will work with the 1s 3p 5d 7f 9g ... basis set
              ...i.e. with spherical basis functions...

   type   atoms  prim   cont   basis
   ---------------------------------------------------------------------------
    c        5     70     49   cc-pVTZ   [6s4p3d1f1g|12s5p4d2f1g]
    h       11     16     11   cc-pVTZ   [3s1p1d|5s2p1d]
    o        1     70     49   cc-pVTZ   [6s4p3d1f1g|12s5p4d2f1g]
    n        1     70     49   cc-pVTZ   [6s4p3d1f1g|12s5p4d2f1g]
   ---------------------------------------------------------------------------
   total:   18    666    464
   ---------------------------------------------------------------------------

   total number of primitive shells          :   80
   total number of contracted shells         :  160
   total number of cartesian basis functions :  559
   total number of SCF-basis functions       :  464


 symmetry group of the molecule :   c1 

 the group has the following generators :
   c1(z)

    1 symmetry operations found

 there are 1 real representations :   a   

 maximum number of shells which are related by symmetry :  1


    mo occupation :
   irrep   mo's   occupied
    a      364       28
 
 number of basis functions   :                    364
 number of occupied orbitals :                     28
 
  
           ------------------
           density functional
           ------------------
 TPSS meta-GGA functional
 exchange:    LDA + TPSS
 correlation: LDA (PW) + TPSS

 iterations will be done with small grid
  
 spherical integration : Lebedev's spherical grid
 spherical gridsize    :                     5
    i.e. gridpoints    :                   590
 value for diffuse not defined
 radial integration    : Chebyshev 2nd kind (scaling 3)
 radial gridsize       :                     8
 integration cells     :                    18
 partition function    : becke
 partition sharpness   :                     3
  

 biggest AO integral is expected to be     4.866064444
  
           ------------------------
               RI-J - INFORMATION
           ------------------------
 Contributions to RI integral batches: 
  neglected integral batches:                  1100
  direct contribution:                            0
  memory contribution:                  8216
 Memory core needed for (P|Q) and Cholesky      2 MByte
 Memory core minimum needed except of (P|Q)     1 MByte
 Total minimum memory core needed (sum)         3 MByte
  
 ****************************************
 Memory allocated for RI-J   310 MByte
 ****************************************
                                            

          ------------------------
          nuclear repulsion energy  :   300.387895428    
          ------------------------


         -----------------
         -S,T+V- integrals
         -----------------

 1e-integrals will be neglected if expon. factor < 0.815113E-14
 Difference densities >>NOT<< switched on in parallel ridft!

 DIIS switched on: error vector is FDS-SDF
 Max. Iterations for DIIS is     :   4
 DIIS matrix (see manual) 
    Scaling factor of diagonals  :  1.200
    threshold for scaling factor :  0.000

 scf convergence criterion : increment of total energy < .1000000D-08
                  and increment of one-electron energy < .1000000D-05

  MOs are in ASCII format !


 automatic virtual orbital shift switched on 
      shift if e(lumo)-e(homo) < 0.10000000    


 reading orbital data $scfmo  from file mos
 orbital characterization : expanded
 mo provided and orthogonalized by Cholesky decomposition

 DSCF restart information will be dumped onto file mos


 Starting SCF iterations

          Overall gridpoints after grid construction =         82211

 ITERATION  ENERGY          1e-ENERGY        2e-ENERGY     RMS[dD(SAO)]   TOL
   1  -325.87708045274    -1028.5012817     402.23630587    0.000D+00 0.813D-13
                            Exc = -45.9226643557     Coul =  448.158970221    
                              N = 56.000100797    
                            current damping = 0.700
 
          max. resid. norm for Fia-block=  3.716D-01 for orbital     20a         
          max. resid. fock norm         =  5.223D+00 for orbital    349a         

 ITERATION  ENERGY          1e-ENERGY        2e-ENERGY     RMS[dD(SAO)]   TOL
   2  -327.02532230000    -1034.3880080     406.97479029    0.289D-02 0.813D-13
                            Exc = -46.3376806603     Coul =  453.312470952    
                              N = 56.000086829    
                            current damping = 0.650
 
          Norm of current diis error:  2.2193    
          max. resid. norm for Fia-block=  1.581D-01 for orbital      1a         
          max. resid. fock norm         =  3.372D-01 for orbital    358a         

 ITERATION  ENERGY          1e-ENERGY        2e-ENERGY     RMS[dD(SAO)]   TOL
   3  -327.21644163044    -1036.5789006     408.97456355    0.183D-02 0.813D-13
                            Exc = -46.6749426294     Coul =  455.649506178    
                              N = 56.000076146    
                            current damping = 0.550
 
          Norm of current diis error:  1.0757    
          max. resid. norm for Fia-block=  6.192D-02 for orbital      1a         
          max. resid. fock norm         =  6.513D-02 for orbital      1a         

 ITERATION  ENERGY          1e-ENERGY        2e-ENERGY     RMS[dD(SAO)]   TOL
   4  -327.27430024651    -1036.8475760     409.18538033    0.147D-02 0.813D-13
                            Exc = -46.7178846884     Coul =  455.903265014    
                              N = 56.000076339    
                            current damping = 0.400
 
          Norm of current diis error: 0.46176    
          max. resid. norm for Fia-block=  3.384D-02 for orbital      8a         
          max. resid. fock norm         =  6.908D-02 for orbital    353a         

 ITERATION  ENERGY          1e-ENERGY        2e-ENERGY     RMS[dD(SAO)]   TOL
   5  -327.28179443192    -1037.7256945     410.05600468    0.634D-03 0.813D-13
                            Exc = -46.8552885880     Coul =  456.911293268    
                              N = 56.000071365    
                            current damping = 0.300
 
          Norm of current diis error: 0.31461    
          max. resid. norm for Fia-block=  1.355D-02 for orbital     28a         
          max. resid. fock norm         =  1.934D-02 for orbital    360a         
          mo-orthogonalization: Cholesky decomposition

 ITERATION  ENERGY          1e-ENERGY        2e-ENERGY     RMS[dD(SAO)]   TOL
   6  -327.28662992423    -1037.6988464     410.02432107    0.479D-03 0.813D-13
                            Exc = -46.8470537184     Coul =  456.871374793    
                              N = 56.000073178    
                            current damping = 0.350
 
          Norm of current diis error: 0.87424E-01
          max. resid. norm for Fia-block=  5.189D-03 for orbital     27a         
          max. resid. fock norm         =  7.788D-03 for orbital    360a         

 ITERATION  ENERGY          1e-ENERGY        2e-ENERGY     RMS[dD(SAO)]   TOL
   7  -327.28689581139    -1037.5745998     409.89980853    0.122D-03 0.813D-13
                            Exc = -46.8368175879     Coul =  456.736626121    
                              N = 56.000073242    
                            current damping = 0.200
 
          Norm of current diis error: 0.44964E-01
          max. resid. norm for Fia-block=  1.573D-03 for orbital     13a         
          max. resid. fock norm         =  2.527D-03 for orbital    358a         

 ITERATION  ENERGY          1e-ENERGY        2e-ENERGY     RMS[dD(SAO)]   TOL
   8  -327.28696893602    -1037.6494312     409.97456685    0.336D-04 0.813D-13
                            Exc = -46.8463558874     Coul =  456.820922741    
                              N = 56.000072992    
                            current damping = 0.250
 
          Norm of current diis error: 0.11189E-01
          max. resid. norm for Fia-block=  5.054D-04 for orbital     26a         
          max. resid. fock norm         =  7.055D-04 for orbital    359a         

 ITERATION  ENERGY          1e-ENERGY        2e-ENERGY     RMS[dD(SAO)]   TOL
   9  -327.28697210359    -1037.6674326     409.99256509    0.112D-04 0.813D-13
                            Exc = -46.8473306361     Coul =  456.839895729    
                              N = 56.000072999    
                            current damping = 0.100
 
          Norm of current diis error: 0.75755E-02
          max. resid. norm for Fia-block=  3.711D-04 for orbital     26a         
          max. resid. fock norm         =  5.009D-04 for orbital    359a         

 ITERATION  ENERGY          1e-ENERGY        2e-ENERGY     RMS[dD(SAO)]   TOL
  10  -327.28697321562    -1037.6524498     409.97758118    0.930D-05 0.813D-13
                            Exc = -46.8458972943     Coul =  456.823478479    
                              N = 56.000073057    
                            current damping = 0.150
 
          Norm of current diis error: 0.52894E-02
          max. resid. norm for Fia-block=  1.531D-04 for orbital     26a         
          max. resid. fock norm         =  2.074D-04 for orbital    359a         
          mo-orthogonalization: Cholesky decomposition

 ITERATION  ENERGY          1e-ENERGY        2e-ENERGY     RMS[dD(SAO)]   TOL
  11  -327.28697442135    -1037.6524806     409.97761080    0.438D-05 0.813D-13
                            Exc = -46.8461728470     Coul =  456.823783647    
                              N = 56.000073032    
                            current damping = 0.200
 
          Norm of current diis error: 0.88926E-03
          max. resid. norm for Fia-block=  3.554D-05 for orbital     26a         
          max. resid. fock norm         =  4.523D-05 for orbital    359a         

 ITERATION  ENERGY          1e-ENERGY        2e-ENERGY     RMS[dD(SAO)]   TOL
  12  -327.28697444428    -1037.6556921     409.98082227    0.990D-06 0.813D-13
                            Exc = -46.8463993342     Coul =  456.827221606    
                              N = 56.000073027    
                            current damping = 0.050
 
          Norm of current diis error: 0.42811E-03
          max. resid. norm for Fia-block=  1.548D-05 for orbital     28a         
          max. resid. fock norm         =  2.131D-05 for orbital    360a         

 ITERATION  ENERGY          1e-ENERGY        2e-ENERGY     RMS[dD(SAO)]   TOL
  13  -327.28697444978    -1037.6543335     409.97946363    0.637D-06 0.813D-13
                            Exc = -46.8462787585     Coul =  456.825742388    
                              N = 56.000073032    
                            current damping = 0.100
 
          Norm of current diis error: 0.21506E-03
          max. resid. norm for Fia-block=  9.361D-06 for orbital     27a         
          max. resid. fock norm         =  1.644D-05 for orbital    360a         

 ITERATION  ENERGY          1e-ENERGY        2e-ENERGY     RMS[dD(SAO)]   TOL
  14  -327.28697445161    -1037.6544787     409.97960879    0.280D-06 0.813D-13
                            Exc = -46.8463017659     Coul =  456.825910557    
                              N = 56.000073030    
                            current damping = 0.150
 
          Norm of current diis error: 0.97215E-04
          max. resid. norm for Fia-block=  3.640D-06 for orbital     27a         
          max. resid. fock norm         =  5.699D-06 for orbital    360a         

 DENSITY CONVERGED !


 ITERATION  ENERGY          1e-ENERGY        2e-ENERGY     RMS[dD(SAO)]   TOL
  15  -327.28697445195    -1037.6545826     409.97971276    0.862D-07 0.813D-13
                            Exc = -46.8463101464     Coul =  456.826022903    
                              N = 56.000073030    
                            current damping = 0.050
 
          Norm of current diis error: 0.39349E-04
          max. resid. norm for Fia-block=  1.376D-06 for orbital     28a         
          max. resid. fock norm         =  1.819D-06 for orbital    361a         
          mo-orthogonalization: Cholesky decomposition

 DENSITY CONVERGED !


 ITERATION  ENERGY          1e-ENERGY        2e-ENERGY     RMS[dD(SAO)]   TOL
  16  -327.28697445198    -1037.6545179     409.97964801    0.485D-07 0.813D-13
                            Exc = -46.8463016724     Coul =  456.825949685    
                              N = 56.000073030    
                            current damping = 0.100
 
          Norm of current diis error: 0.22377E-04
          max. resid. norm for Fia-block=  6.699D-07 for orbital     28a         
          max. resid. fock norm         =  8.699D-07 for orbital    359a         

 ENERGY & DENSITY CONVERGED !

          Overall gridpoints after grid construction =        271272

 ITERATION  ENERGY          1e-ENERGY        2e-ENERGY     RMS[dD(SAO)]   TOL
  17  -327.28685023691    -1037.6545262     409.97978053    0.213D-07 0.813D-13
                            Exc = -46.8461797511     Coul =  456.825960277    
                              N = 55.999993828    
                            current damping = 0.150
 
          Norm of current diis error: 0.72385E-05
          max. resid. norm for Fia-block=  2.753D-07 for orbital     26a         
          max. resid. fock norm         =  3.735D-07 for orbital    359a         

 End of SCF iterations

   convergence criteria satisfied after    17 iterations


                  ------------------------------------------ 
                 |  total energy      =   -327.28685023691  |
                  ------------------------------------------ 
                 :  kinetic energy    =    325.54221257902  :
                 :  potential energy  =   -652.82906281593  :
                 :  virial theorem    =      1.99466939275  :
                 :  wavefunction norm =      1.00000000000  :
                  .......................................... 


 <geterg> : there is no data group $energy 


 <skperg> : $end is missing 


 orbitals $scfmo  will be written to file mos

    irrep                 24a         25a         26a         27a         28a   
 eigenvalues H         -0.31617    -0.31254    -0.23839    -0.22334    -0.20844
            eV          -8.6035     -8.5047     -6.4871     -6.0775     -5.6721
 occupation              2.0000      2.0000      2.0000      2.0000      2.0000 

    irrep                 29a         30a         31a         32a         33a   
 eigenvalues H         -0.01899    -0.00296     0.01236     0.04507     0.05854
            eV          -0.5167     -0.0806      0.3364      1.2263      1.5930
 
 
 
 
 ==============================================================================
                           electrostatic moments
 ==============================================================================

 reference point for electrostatic moments:    0.00000   0.00000   0.00000

 
              nuc           elec       ->  total
 ------------------------------------------------------------------------------
                          charge      
 ------------------------------------------------------------------------------
          56.000000     -56.000000       0.000000
 
 ------------------------------------------------------------------------------
                       dipole moment  
 ------------------------------------------------------------------------------
   x      -5.487663       5.289029      -0.198633
   y       3.517376      -2.200558       1.316817
   z     134.358261    -134.754279      -0.396019
 
   | dipole moment | =     1.3894 a.u. =     3.5314 debye 
 
 ------------------------------------------------------------------------------
                     quadrupole moment
 ------------------------------------------------------------------------------
  xx     305.436002    -335.864049     -30.428047
  yy     120.995574    -154.922729     -33.927155
  zz     866.250689    -900.098125     -33.847436
  xy     -28.253830      27.327009      -0.926821
  xz      90.046517     -89.091077       0.955440
  yz     -22.794444      23.864103       1.069659
 
     1/3  trace=     -32.734213
     anisotropy=       4.551843
 
 ==============================================================================
 


    ------------------------------------------------------------------------
         total  cpu-time :  4 minutes and 17 seconds
         total wall-time :  29.73 seconds
    ------------------------------------------------------------------------

   ****  ridft : all done  ****


    2018-04-24 21:22:24.673 

