 operating system is UNIX !
 hostname is         c-5-13.local

 ridft (c-5-13.local) : TURBOMOLE V7.0.2( ) 8 Jan 2016 at 10:54:38
 Copyright (C) 2016 TURBOMOLE GmbH, Karlsruhe


    2017-11-06 15:54:20.810 



                                  r i d f t

                        DFT program with RI approximation 
                                for coulomb part 




                                                 
                                 References:     
                                                 
          TURBOMOLE:                             
              R. Ahlrichs, M. Baer, M. Haeser, H. Horn, and
              C. Koelmel
              Electronic structure calculations on workstation
              computers: the program system TURBOMOLE
              Chem. Phys. Lett. 162: 165 (1989)
          Density Functional:                              
              O. Treutler and R. Ahlrichs                      
              Efficient Molecular Numerical Integration Schemes
              J. Chem. Phys. 102: 346 (1995)                   
          Parallel Version:                                
              Performance of parallel TURBOMOLE for Density    
              Functional Calculations                          
              M. v. Arnim and R. Ahlrichs                      
              J. Comp. Chem. 19: 1746 (1998)                   
          RI-J Method:                                     
              Auxiliary Basis Sets to approximate Coulomb      
              Potentials                                       
              Chem. Phys. Lett. 240: 283 (1995)                
              K. Eichkorn, O. Treutler, H. Oehm, M. Haeser     
              and R. Ahlrichs                                  
              Chem. Phys. Lett. 242: 652 (1995)                
                                                           
              Auxiliary Basis Sets for Main Row Atoms and their
              Use to approximate Coulomb Potentials            
              K. Eichkorn, F. Weigend, O. Treutler and         
              R. Ahlrichs                                      
              Theo. Chem. Acc. 97: 119 (1997)                   
                                                           
              Accurate Coulomb-fitting basis sets for H to Rn 
              F. Weigend                                        
              Phys. Chem. Chem. Phys. 8: 1057 (2006)            
                                                           
          Multipole accelerated RI-J (MARI-J):             
              Fast evaluation of the Coulomb potential for     
              electron densities using multipole accelerated   
              resolution of identity approximation             
              M. Sierka, A. Hogekamp and R. Ahlrichs           
              J. Chem. Phys. 118: 9136 (2003)                  
          RI-JK Method:                                     
              A fully direct RI-HF algorithm: Implementation,
              optimised auxiliary basis sets, demonstration of
              accuracy and efficiency                         
              F. Weigend                                      
              Phys. Chem. Chem. Phys. 4: 4285 (2002)           
          Two-component HF and DFT with spin-orbit coupling:  
              Self-consistent treatment of spin-orbit         
              interactions with efficient Hartree-Fock and    
              density functional methods                      
              M. K. Armbruster, F. Weigend, C. van Wüllen and 
              W. Klopper                                      
              Phys. Chem. Chem. Phys. 10: 1748 (2008)         
          Relativistic all-electron 2c calculations           
              An efficient implementation of two-component    
              relativistic exact-decoupling methods for large 
              molecules                                       
              D. Peng, N. Middendorf, F. Weigend, M. Reiher   
              J. Chem. Phys. 138, 184105 (2013)               
                                         


 


              +--------------------------------------------------+
              |      general information about current run       |
              +--------------------------------------------------+

 

 DENSITY CONVERGENCE CHECK SWITCHED ON !
 SCF CONVERGENCE IF RMS(delta[D]) <     0.1000000000E-06

 A HF calculation using the RI-J approximation will be carried out.
 Allocatable memory for RI due to $ricore (MB):       12000


              +--------------------------------------------------+
              | Atomic coordinate, charge and isotop information |
              +--------------------------------------------------+

                    atomic coordinates            atom    charge  isotop
         -0.16655801    2.81121755    2.16090496    c      6.000     0
         -0.16655801    2.81121755   -2.16090496    c      6.000     0
          2.33480504    2.31416275    1.33241730    c      6.000     0
          2.33480504    2.31416275   -1.33241730    c      6.000     0
         -1.71828841    3.07976415    0.00000000    c      6.000     0
          4.11808207    1.08297655    2.79188941    c      6.000     0
          4.11808207    1.08297655   -2.79188941    c      6.000     0
         -1.04839190    2.15380922    4.52646669    c      6.000     0
         -1.04839190    2.15380922   -4.52646669    c      6.000     0
         -4.32032297    2.73176717    0.00000000    c      6.000     0
         -3.77805371    2.05590818   -4.67455165    c      6.000     0
         -3.77805371    2.05590818    4.67455165    c      6.000     0
          6.11260099   -0.09139818   -1.33738989    c      6.000     0
          6.11260099   -0.09139818    1.33738989    c      6.000     0
          3.43095449    0.94729140    5.46385086    c      6.000     0
          3.43095449    0.94729140   -5.46385086    c      6.000     0
          0.96214133    1.46208341    6.29326145    c      6.000     0
          0.96214133    1.46208341   -6.29326145    c      6.000     0
         -7.44040517   -1.02339788    6.70398375    c      6.000     0
         -7.44040517   -1.02339788   -6.70398375    c      6.000     0
         -5.35217441    2.40769388    2.53912509    c      6.000     0
         -5.35217441    2.40769388   -2.53912509    c      6.000     0
         -9.04495783   -0.50892580    4.67286077    c      6.000     0
         -9.04495783   -0.50892580   -4.67286077    c      6.000     0
          8.28200674   -4.77956095   -1.31933659    c      6.000     0
          8.28200674   -4.77956095    1.31933659    c      6.000     0
          5.30056021    2.75641791    9.91387503    c      6.000     0
          5.30056021    2.75641791   -9.91387503    c      6.000     0
          2.84940146    3.26516298   10.74083111    c      6.000     0
          2.84940146    3.26516298  -10.74083111    c      6.000     0
          2.41304118    5.17562830   12.51359438    c      6.000     0
          2.41304118    5.17562830  -12.51359438    c      6.000     0
          7.33680712    4.15443673  -10.85333635    c      6.000     0
          7.33680712    4.15443673   10.85333635    c      6.000     0
          8.20144164   -7.06081310    2.64943356    c      6.000     0
          8.20144164   -7.06081310   -2.64943356    c      6.000     0
         -7.68330770   -3.27925851    8.05668840    c      6.000     0
         -7.68330770   -3.27925851   -8.05668840    c      6.000     0
        -10.91837250   -2.24073285    3.98876740    c      6.000     0
        -10.91837250   -2.24073285   -3.98876740    c      6.000     0
         -9.59614095   -4.97336640   -7.41240049    c      6.000     0
         -9.59614095   -4.97336640    7.41240049    c      6.000     0
        -11.21170643   -4.45276124    5.38971248    c      6.000     0
        -11.21170643   -4.45276124   -5.38971248    c      6.000     0
          8.19862785   -9.33544757    1.32020444    c      6.000     0
          8.19862785   -9.33544757   -1.32020444    c      6.000     0
          6.90827581    6.00349809  -12.68008718    c      6.000     0
          6.90827581    6.00349809   12.68008718    c      6.000     0
          4.45325915    6.51300203   13.50771513    c      6.000     0
          4.45325915    6.51300203  -13.50771513    c      6.000     0
         -5.18626325    1.27287095   -7.61523210    s     16.000     0
         -5.18626325    1.27287095    7.61523210    s     16.000     0
          8.46116988   -1.86466886    2.95469675    s     16.000     0
          8.46116988   -1.86466886   -2.95469675    s     16.000     0
          0.29863622    1.42529942    9.59010115    s     16.000     0
          0.29863622    1.42529942   -9.59010115    s     16.000     0
          5.83036884    0.27772643    7.72354229    s     16.000     0
          5.83036884    0.27772643   -7.72354229    s     16.000     0
         -8.66943366    2.38513105    3.04699861    s     16.000     0
         -8.66943366    2.38513105   -3.04699861    s     16.000     0
        -12.13915879   -1.83632587    2.39145697    h      1.000     0
        -12.13915879   -1.83632587   -2.39145697    h      1.000     0
          0.49293758    5.58659172   13.10912969    h      1.000     0
          0.49293758    5.58659172  -13.10912969    h      1.000     0
          8.15458153   -7.03778754   -4.70053904    h      1.000     0
          8.15458153   -7.03778754    4.70053904    h      1.000     0
          9.23153457    3.77485335   10.16304126    h      1.000     0
          9.23153457    3.77485335  -10.16304126    h      1.000     0
         -6.39747466   -3.67972720   -9.60459755    h      1.000     0
         -6.39747466   -3.67972720    9.60459755    h      1.000     0
        -12.68866936   -5.78523907    4.88505938    h      1.000     0
        -12.68866936   -5.78523907   -4.88505938    h      1.000     0
         -9.81294190   -6.71202573   -8.48046814    h      1.000     0
         -9.81294190   -6.71202573    8.48046814    h      1.000     0
          8.16859062  -11.11070311   -2.34909373    h      1.000     0
          8.16859062  -11.11070311    2.34909373    h      1.000     0
          8.49138769    7.06675477   13.43798631    h      1.000     0
          8.49138769    7.06675477  -13.43798631    h      1.000     0
          4.12210389    7.97385757  -14.91036327    h      1.000     0
          4.12210389    7.97385757   14.91036327    h      1.000     0
 
       center of nuclear mass  :    0.08686213    0.42387031    0.00000000
       center of nuclear charge:    0.08012635    0.39067644    0.00000000

              +--------------------------------------------------+
              |               basis set information              |
              +--------------------------------------------------+

              we will work with the 1s 3p 5d 7f 9g ... basis set
              ...i.e. with spherical basis functions...

   type   atoms  prim   cont   basis
   ---------------------------------------------------------------------------
    c       50     77     57   def2-QZVP   [7s4p3d2f1g|15s8p3d2f1g]
    s       10    105     70   def2-QZVP   [9s6p4d2f1g|20s14p4d2f1g]
    h       20     33     30   def2-QZVP   [4s3p2d1f|7s3p2d1f]
   ---------------------------------------------------------------------------
   total:   80   5560   4150
   ---------------------------------------------------------------------------

   total number of primitive shells          :   83
   total number of contracted shells         : 1270
   total number of cartesian basis functions : 5160
   total number of SCF-basis functions       : 4150


 integral neglect threshold       :  0.65E-14
 integral storage threshold THIZE :  0.10E-04
 integral storage threshold THIME :         5

 RI-J AUXILIARY BASIS SET information:

              we will work with the 1s 3p 5d 7f 9g ... basis set
              ...i.e. with spherical basis functions...

   type   atoms  prim   cont   basis
   ---------------------------------------------------------------------------
    c       50     70     49   def2-QZVP   [6s4p3d1f1g|12s5p4d2f1g]
    s       10     77     51   def2-QZVP   [8s4p3d1f1g|14s5p5d2f1g]
    h       20     16     11   def2-QZVP   [3s1p1d|5s2p1d]
   ---------------------------------------------------------------------------
   total:   80   4590   3180
   ---------------------------------------------------------------------------

   total number of primitive shells          :   59
   total number of contracted shells         : 1020
   total number of cartesian basis functions : 3920
   total number of SCF-basis functions       : 3180


 symmetry group of the molecule :   c1 

 the group has the following generators :
   c1(z)

    1 symmetry operations found

 there are 1 real representations :   a   

 maximum number of shells which are related by symmetry :  1


    mo occupation :
   irrep   mo's   occupied
    a     4150      240
 
 number of basis functions   :         4150
 number of occupied orbitals :          240
 

 biggest AO integral is expected to be    11.378194954
  
           ------------------------
               RI-J - INFORMATION
           ------------------------
 Contributions to RI integral batches: 
  neglected integral batches:      545605
  direct contribution:             195877
  memory contribution:       65603
 Memory core needed for (P|Q) and Cholesky     78 MByte
 Memory core minimum needed except of (P|Q)    12 MByte
 Total minimum memory core needed (sum)        89 MByte
  
 ****************************************
 Memory allocated for RI-J  8813 MByte
 ****************************************
                                            

          ------------------------
          nuclear repulsion energy  :   10910.8412158    
          ------------------------

 
          -----------------
          -S,T+V- integrals
          -----------------

 1e-integrals will be neglected if expon. factor < 0.647667E-15
 
   Difference densities algorithm switched on.
   The maximal number of linear combinations of
   difference densities is          20 .

 automatic virtual orbital shift switched on 
      shift if e(lumo)-e(homo) < 0.10000000    


 DIIS switched on: error vector is FDS-SDF
 Max. Iterations for DIIS is     :   5
 DIIS matrix (see manual) 
    Scaling factor of diagonals  :  1.200
    threshold for scaling factor :  0.000

 scf convergence criterion : increment of total energy < .1000000D-08
                  and increment of one-electron energy < .1000000D-05

  MOs are in ASCII format !


 reading orbital data $scfmo  from file mos . 

 orbital characterization : scfconv=9
 

 DSCF restart information will be dumped onto file mos


 Starting SCF iterations


 ENERGY & DENSITY CONVERGED !


 ITERATION  ENERGY          1e-ENERGY        2e-ENERGY     RMS[dD(SAO)]   TOL
   1  -5880.5324089477    -29857.140093     13065.766468    0.000D+00 0.646D-14
                            exK = -516.292101021     Coul =  13582.0585694    
                            current damping = 0.700
 
          max. resid. norm for Fia-block=  4.105D-01 for orbital      3a         
          max. resid. fock norm         =  1.008D+00 for orbital   4150a         

 End of SCF iterations

   convergence criteria satisfied after    1 iterations


                  ------------------------------------------ 
                 |  total energy      =  -5880.53240894768  |
                  ------------------------------------------ 
                 :  kinetic energy    =   5881.93393311449  :
                 :  potential energy  = -11762.46634206217  :
                 :  virial theorem    =      2.00023833287  :
                 :  wavefunction norm =      1.00000000000  :
                  .......................................... 


 orbitals $scfmo  will be written to file mos

    irrep                236a        237a        238a        239a        240a   
 eigenvalues H         -0.30003    -0.28325    -0.28102    -0.28200    -0.27172
            eV          -8.1644     -7.7077     -7.6471     -7.6736     -7.3939
 occupation              2.0000      2.0000      2.0000      2.0000      2.0000 

    irrep                241a        242a        243a        244a        245a   
 eigenvalues H          0.02566     0.03487     0.10821     0.10220     0.11054
            eV           0.6982      0.9488      2.9445      2.7810      3.0079
 
 
 
 
 ==============================================================================
                           electrostatic moments
 ==============================================================================

 reference point for electrostatic moments:    0.00000   0.00000   0.00000

 
              nuc           elec       ->  total
 ------------------------------------------------------------------------------
                          charge      
 ------------------------------------------------------------------------------
         480.000000    -480.000000       0.000000
 
 ------------------------------------------------------------------------------
                       dipole moment  
 ------------------------------------------------------------------------------
   x      38.460649     -38.669440      -0.208791
   y     187.524691    -188.513128      -0.988437
   z       0.000000      -0.000000      -0.000000
 
   | dipole moment | =     1.0102 a.u. =     2.5678 debye 
 
 ------------------------------------------------------------------------------
                     quadrupole moment
 ------------------------------------------------------------------------------
  xx   20478.391448  -20769.149062    -290.757614
  yy    6101.850259   -6385.994162    -284.143903
  zz   23574.710581  -23860.185916    -285.475334
  xy     281.187808    -265.878638      15.309171
  xz       0.000000       0.000000       0.000000
  yz       0.000000      -0.000000      -0.000000
 
     1/3  trace=    -286.792284
     anisotropy=      27.199638
 
 ==============================================================================
 
 


    ------------------------------------------------------------------------
         total  cpu-time : 21 hours 40 minutes and 24 seconds
         total wall-time : 21 hours 39 minutes and 28 seconds
    ------------------------------------------------------------------------


   ****  ridft : all done  ****


    2017-11-07 13:33:48.493 

