 operating system is UNIX !

 ridft (c-18-411.gp.local) : TURBOMOLE V7.2 ( 21454 ) 4 Oct 2017 at 12:48:15
 Copyright (C) 2017 TURBOMOLE GmbH, Karlsruhe


    2018-05-18 15:42:01.351 



                                  r i d f t

                        DFT program with RI approximation 
                                for coulomb part 




                                                 
                                 References:     
                                                 
          TURBOMOLE:                             
              R. Ahlrichs, M. Baer, M. Haeser, H. Horn, and
              C. Koelmel
              Electronic structure calculations on workstation
              computers: the program system TURBOMOLE
              Chem. Phys. Lett. 162: 165 (1989)
          Density Functional:                              
              O. Treutler and R. Ahlrichs                      
              Efficient Molecular Numerical Integration Schemes
              J. Chem. Phys. 102: 346 (1995)                   
          Parallel Version:                                
              Performance of parallel TURBOMOLE for Density    
              Functional Calculations                          
              M. v. Arnim and R. Ahlrichs                      
              J. Comp. Chem. 19: 1746 (1998)                   
          RI-J Method:                                     
              Auxiliary Basis Sets to approximate Coulomb      
              Potentials                                       
              Chem. Phys. Lett. 240: 283 (1995)                
              K. Eichkorn, O. Treutler, H. Oehm, M. Haeser     
              and R. Ahlrichs                                  
              Chem. Phys. Lett. 242: 652 (1995)                
                                                           
              Auxiliary Basis Sets for Main Row Atoms and their
              Use to approximate Coulomb Potentials            
              K. Eichkorn, F. Weigend, O. Treutler and         
              R. Ahlrichs                                      
              Theo. Chem. Acc. 97: 119 (1997)                   
                                                           
              Accurate Coulomb-fitting basis sets for H to Rn 
              F. Weigend                                        
              Phys. Chem. Chem. Phys. 8: 1057 (2006)            
                                                           
          Multipole accelerated RI-J (MARI-J):             
              Fast evaluation of the Coulomb potential for     
              electron densities using multipole accelerated   
              resolution of identity approximation             
              M. Sierka, A. Hogekamp and R. Ahlrichs           
              J. Chem. Phys. 118: 9136 (2003)                  
          RI-JK Method:                                     
              A fully direct RI-HF algorithm: Implementation,
              optimised auxiliary basis sets, demonstration of
              accuracy and efficiency                         
              F. Weigend                                      
              Phys. Chem. Chem. Phys. 4: 4285 (2002)           
          Two-component HF and DFT with spin-orbit coupling:  
              Self-consistent treatment of spin-orbit         
              interactions with efficient Hartree-Fock and    
              density functional methods                      
              M. K. Armbruster, F. Weigend, C. van Wüllen and 
              W. Klopper                                      
              Phys. Chem. Chem. Phys. 10: 1748 (2008)         
          Relativistic all-electron 2c calculations           
              An efficient implementation of two-component    
              relativistic exact-decoupling methods for large 
              molecules                                       
              D. Peng, N. Middendorf, F. Weigend, M. Reiher   
              J. Chem. Phys. 138, 184105 (2013)               
                                         




              +--------------------------------------------------+
              |      general information about current run       |
              +--------------------------------------------------+

 
 TPSS meta-GGA functional
 exchange:    LDA + TPSS
 correlation: LDA (PW) + TPSS
 A DFT calculation using the RI-J approximation will be carried out.
 Allocatable memory for RI due to $ricore (MB):                   500


              +--------------------------------------------------+
              | Atomic coordinate, charge and isotop information |
              +--------------------------------------------------+

                    atomic coordinates            atom    charge  isotop
         -2.10444837    2.50770455    0.51999037    c      6.000     0
         -0.88265827    4.43969949    0.87217940    o      8.000     0
         -1.09243062    0.25874222    0.09376344    o      8.000     0
          0.78106229    0.38409932    0.10485544    h      1.000     0
         -4.93487747    2.43054605    0.52413691    c      6.000     0
         -5.68174265    4.30268993    0.88021521    h      1.000     0
         -5.60163246    1.72958824   -1.28879555    h      1.000     0
         -5.58057710    1.11833654    1.96765922    h      1.000     0
 
       center of nuclear mass  :   -2.20408224    2.36592893    0.49411155
       center of nuclear charge:   -2.31623613    2.33599223    0.48925752

              +--------------------------------------------------+
              |               basis set information              |
              +--------------------------------------------------+

              we will work with the 1s 3p 5d 7f 9g ... basis set
              ...i.e. with spherical basis functions...

   type   atoms  prim   cont   basis
   ---------------------------------------------------------------------------
    c        2     77     57   def2-QZVP   [7s4p3d2f1g|15s8p3d2f1g]
    o        2     77     57   def2-QZVP   [7s4p3d2f1g|15s8p3d2f1g]
    h        4     33     30   def2-QZVP   [4s3p2d1f|7s3p2d1f]
   ---------------------------------------------------------------------------
   total:    8    440    348
   ---------------------------------------------------------------------------

   total number of primitive shells          :   71
   total number of contracted shells         :  108
   total number of cartesian basis functions :  428
   total number of SCF-basis functions       :  348


 integral neglect threshold       :  0.78E-13
 integral storage threshold THIZE :  0.10E-04
 integral storage threshold THIME :         5

 RI-J AUXILIARY BASIS SET information:

              we will work with the 1s 3p 5d 7f 9g ... basis set
              ...i.e. with spherical basis functions...

   type   atoms  prim   cont   basis
   ---------------------------------------------------------------------------
    c        2     70     49   def2-QZVP   [6s4p3d1f1g|12s5p4d2f1g]
    o        2     70     49   def2-QZVP   [6s4p3d1f1g|12s5p4d2f1g]
    h        4     16     11   def2-QZVP   [3s1p1d|5s2p1d]
   ---------------------------------------------------------------------------
   total:    8    344    240
   ---------------------------------------------------------------------------

   total number of primitive shells          :   56
   total number of contracted shells         :   80
   total number of cartesian basis functions :  292
   total number of SCF-basis functions       :  240


 symmetry group of the molecule :   c1 

 the group has the following generators :
   c1(z)

    1 symmetry operations found

 there are 1 real representations :   a   

 maximum number of shells which are related by symmetry :  1


    mo occupation :
   irrep   mo's   occupied
    a      348       16
 
 number of basis functions   :                    348
 number of occupied orbitals :                     16
 
  
           ------------------
           density functional
           ------------------
 TPSS meta-GGA functional
 exchange:    LDA + TPSS
 correlation: LDA (PW) + TPSS

 iterations will be done with small grid
  
 spherical integration : Lebedev's spherical grid
 spherical gridsize    :                     5
    i.e. gridpoints    :                   590
 value for diffuse not defined
 radial integration    : Chebyshev 2nd kind (scaling 3)
 radial gridsize       :                     8
 integration cells     :                     8
 partition function    : becke
 partition sharpness   :                     3
  

 biggest AO integral is expected to be     6.990327543
  
           ------------------------
               RI-J - INFORMATION
           ------------------------
 Contributions to RI integral batches: 
  neglected integral batches:                   444
  direct contribution:                            0
  memory contribution:                  5442
 Memory core needed for (P|Q) and Cholesky      1 MByte
 Memory core minimum needed except of (P|Q)     1 MByte
 Total minimum memory core needed (sum)         2 MByte
  
 ****************************************
 Memory allocated for RI-J   196 MByte
 ****************************************
                                            

          ------------------------
          nuclear repulsion energy  :   121.306063649    
          ------------------------


         -----------------
         -S,T+V- integrals
         -----------------

 1e-integrals will be neglected if expon. factor < 0.780832E-14
 
   Difference densities algorithm switched on.
   The maximal number of linear combinations of
   difference densities is                    20 .

 DIIS switched on: error vector is FDS-SDF
 Max. Iterations for DIIS is     :   4
 DIIS matrix (see manual) 
    Scaling factor of diagonals  :  1.200
    threshold for scaling factor :  0.000

 scf convergence criterion : increment of total energy < .1000000D-08
                  and increment of one-electron energy < .1000000D-05

  MOs are in ASCII format !


 automatic virtual orbital shift switched on 
      shift if e(lumo)-e(homo) < 0.10000000    


 reading orbital data $scfmo  from file mos
 orbital characterization : expanded
 mo provided and orthogonalized by Cholesky decomposition

 DSCF restart information will be dumped onto file mos


 Starting SCF iterations

          Overall gridpoints after grid construction =         39424

 ITERATION  ENERGY          1e-ENERGY        2e-ENERGY     NORM[dD(SAO)]  TOL
   1  -228.17115474844    -549.31938519     199.84216680    0.000D+00 0.779D-13
                            Exc = -29.5228290034     Coul =  229.364995799    
                              N = 31.999983072    
                            current damping = 0.700
 
          max. resid. norm for Fia-block=  8.750D-01 for orbital      6a         
          max. resid. fock norm         =  8.133D+01 for orbital    322a         

 ITERATION  ENERGY          1e-ENERGY        2e-ENERGY     NORM[dD(SAO)]  TOL
   2  -229.06622367721    -551.22522836     200.85294104    0.110D+01 0.591D-13
                            Exc = -29.4109862692     Coul =  230.263927304    
                              N = 31.999987055    
                            current damping = 0.650
 
          Norm of current diis error:  2.3812    
          max. resid. norm for Fia-block=  1.619D-01 for orbital      2a         
          max. resid. fock norm         =  3.036D-01 for orbital    195a         

 ITERATION  ENERGY          1e-ENERGY        2e-ENERGY     NORM[dD(SAO)]  TOL
   3  -229.18494153706    -552.47037087     201.97936569    0.448D+00 0.426D-13
                            Exc = -29.5699490171     Coul =  231.549314706    
                              N = 31.999988403    
                            current damping = 0.550
 
          Norm of current diis error:  1.0846    
          max. resid. norm for Fia-block=  6.350D-02 for orbital      2a         
          max. resid. fock norm         =  8.517D-02 for orbital    178a         

 ITERATION  ENERGY          1e-ENERGY        2e-ENERGY     NORM[dD(SAO)]  TOL
   4  -229.22005134957    -552.18161286     201.65549786    0.196D+00 0.345D-13
                            Exc = -29.5247974372     Coul =  231.180295296    
                              N = 31.999988496    
                            current damping = 0.600
 
          Norm of current diis error: 0.42797    
          max. resid. norm for Fia-block=  3.118D-02 for orbital      6a         
          max. resid. fock norm         =  6.227D-02 for orbital    333a         

 ITERATION  ENERGY          1e-ENERGY        2e-ENERGY     NORM[dD(SAO)]  TOL
   5  -229.22450484771    -552.58047746     202.04990897    0.764D-01 0.313D-13
                            Exc = -29.5859317810     Coul =  231.635840746    
                              N = 31.999988919    
                            current damping = 0.650
 
          Norm of current diis error: 0.25648    
          max. resid. norm for Fia-block=  1.207D-02 for orbital     15a         
          max. resid. fock norm         =  2.012D-02 for orbital    347a         
          mo-orthogonalization: Cholesky decomposition

 ITERATION  ENERGY          1e-ENERGY        2e-ENERGY     NORM[dD(SAO)]  TOL
   6  -229.22668987428    -552.58231674     202.04956322    0.335D-01 0.294D-13
                            Exc = -29.5809783005     Coul =  231.630541516    
                              N = 31.999988748    
                            current damping = 0.700
 
          Norm of current diis error: 0.96017E-01
          max. resid. norm for Fia-block=  4.787D-03 for orbital     14a         
          max. resid. fock norm         =  1.085D-02 for orbital    348a         

 ITERATION  ENERGY          1e-ENERGY        2e-ENERGY     NORM[dD(SAO)]  TOL
   7  -229.22697530235    -552.50214107     201.96910212    0.106D-01 0.284D-13
                            Exc = -29.5729197609     Coul =  231.542021878    
                              N = 31.999988708    
                            current damping = 0.750
 
          Norm of current diis error: 0.32294E-01
          max. resid. norm for Fia-block=  1.892D-03 for orbital      5a         
          max. resid. fock norm         =  4.114D-03 for orbital    335a         

 ITERATION  ENERGY          1e-ENERGY        2e-ENERGY     NORM[dD(SAO)]  TOL
   8  -229.22700688167    -552.52880479     201.99573426    0.216D-02 0.278D-13
                            Exc = -29.5772746269     Coul =  231.573008889    
                              N = 31.999988719    
                            current damping = 0.800
 
          Norm of current diis error: 0.11809E-01
          max. resid. norm for Fia-block=  6.137D-04 for orbital      2a         
          max. resid. fock norm         =  1.836D-03 for orbital    335a         

 ITERATION  ENERGY          1e-ENERGY        2e-ENERGY     NORM[dD(SAO)]  TOL
   9  -229.22701204671    -552.54044445     202.00736875    0.102D-02 0.272D-13
                            Exc = -29.5783373105     Coul =  231.585706062    
                              N = 31.999988724    
                            current damping = 0.650
 
          Norm of current diis error: 0.50021E-02
          max. resid. norm for Fia-block=  3.287D-04 for orbital     16a         
          max. resid. fock norm         =  7.018D-04 for orbital    327a         

 ITERATION  ENERGY          1e-ENERGY        2e-ENERGY     NORM[dD(SAO)]  TOL
  10  -229.22701268492    -552.53497661     202.00190027    0.252D-03 0.269D-13
                            Exc = -29.5778787272     Coul =  231.579779002    
                              N = 31.999988716    
                            current damping = 0.700
 
          Norm of current diis error: 0.41257E-02
          max. resid. norm for Fia-block=  2.192D-04 for orbital     15a         
          max. resid. fock norm         =  5.371D-04 for orbital    347a         
          mo-orthogonalization: Cholesky decomposition

 ITERATION  ENERGY          1e-ENERGY        2e-ENERGY     NORM[dD(SAO)]  TOL
  11  -229.22701312492    -552.53569451     202.00261773    0.446D-04 0.265D-13
                            Exc = -29.5781161471     Coul =  231.580733879    
                              N = 31.999988719    
                            current damping = 0.750
 
          Norm of current diis error: 0.21298E-02
          max. resid. norm for Fia-block=  1.247D-04 for orbital      8a         
          max. resid. fock norm         =  2.607D-04 for orbital    327a         

 ITERATION  ENERGY          1e-ENERGY        2e-ENERGY     NORM[dD(SAO)]  TOL
  12  -229.22701322594    -552.53898041     202.00590353    0.386D-04 0.263D-13
                            Exc = -29.5784898101     Coul =  231.584393343    
                              N = 31.999988720    
                            current damping = 0.600
 
          Norm of current diis error: 0.88532E-03
          max. resid. norm for Fia-block=  4.386D-05 for orbital     10a         
          max. resid. fock norm         =  6.405D-05 for orbital    323a         

 ITERATION  ENERGY          1e-ENERGY        2e-ENERGY     NORM[dD(SAO)]  TOL
  13  -229.22701324492    -552.53869155     202.00561465    0.702D-05 0.259D-13
                            Exc = -29.5783748466     Coul =  231.583989501    
                              N = 31.999988719    
                            current damping = 0.650
 
          Norm of current diis error: 0.52895E-03
          max. resid. norm for Fia-block=  1.721D-05 for orbital      8a         
          max. resid. fock norm         =  3.435D-05 for orbital    327a         

 ITERATION  ENERGY          1e-ENERGY        2e-ENERGY     NORM[dD(SAO)]  TOL
  14  -229.22701325009    -552.53826378     202.00518689    0.479D-05 0.257D-13
                            Exc = -29.5783589754     Coul =  231.583545860    
                              N = 31.999988719    
                            current damping = 0.500
 
          Norm of current diis error: 0.21544E-03
          max. resid. norm for Fia-block=  1.076D-05 for orbital     15a         
          max. resid. fock norm         =  2.447D-05 for orbital    335a         

 ITERATION  ENERGY          1e-ENERGY        2e-ENERGY     NORM[dD(SAO)]  TOL
  15  -229.22701325106    -552.53843589     202.00535899    0.723D-06 0.255D-13
                            Exc = -29.5783886002     Coul =  231.583747589    
                              N = 31.999988719    
                            current damping = 0.550
 
          Norm of current diis error: 0.11181E-03
          max. resid. norm for Fia-block=  5.304D-06 for orbital     15a         
          max. resid. fock norm         =  1.212D-05 for orbital    348a         
          mo-orthogonalization: Cholesky decomposition

 ITERATION  ENERGY          1e-ENERGY        2e-ENERGY     NORM[dD(SAO)]  TOL
  16  -229.22701325140    -552.53845681     202.00537991    0.152D-06 0.251D-13
                            Exc = -29.5783906920     Coul =  231.583770599    
                              N = 31.999988719    
                            current damping = 0.400
 
          Norm of current diis error: 0.33839E-04
          max. resid. norm for Fia-block=  1.379D-06 for orbital     14a         
          max. resid. fock norm         =  3.832D-06 for orbital    323a         

 ITERATION  ENERGY          1e-ENERGY        2e-ENERGY     NORM[dD(SAO)]  TOL
  17  -229.22701325142    -552.53840160     202.00532470    0.156D-06 0.244D-13
                            Exc = -29.5783851096     Coul =  231.583709811    
                              N = 31.999988719    
                            current damping = 0.450
 
          Norm of current diis error: 0.82559E-05
          max. resid. norm for Fia-block=  3.318D-07 for orbital      6a         
          max. resid. fock norm         =  1.751D-06 for orbital    335a         

 ITERATION  ENERGY          1e-ENERGY        2e-ENERGY     NORM[dD(SAO)]  TOL
  18  -229.22701325144    -552.53841364     202.00533674    0.569D-07 0.240D-13
                            Exc = -29.5783866186     Coul =  231.583723355    
                              N = 31.999988719    
                            current damping = 0.500
 
          Norm of current diis error: 0.15425E-05
          max. resid. norm for Fia-block=  9.922D-08 for orbital      8a         
          max. resid. fock norm         =  5.950D-07 for orbital    335a         

 ENERGY CONVERGED !

          Overall gridpoints after grid construction =        127930

 ITERATION  ENERGY          1e-ENERGY        2e-ENERGY     NORM[dD(SAO)]  TOL
  19  -229.22696501875    -552.53841386     202.00538519    0.148D-07 0.236D-13
                            Exc = -29.5783385039     Coul =  231.583723696    
                              N = 31.999999605    
                            current damping = 0.350
 
          Norm of current diis error: 0.44042E-06
          max. resid. norm for Fia-block=  3.250D-08 for orbital     13a         
          max. resid. fock norm         =  2.068D-07 for orbital    335a         

 End of SCF iterations

   convergence criteria satisfied after    19 iterations


                  ------------------------------------------ 
                 |  total energy      =   -229.22696501875  |
                  ------------------------------------------ 
                 :  kinetic energy    =    228.36025891507  :
                 :  potential energy  =   -457.58722393381  :
                 :  virial theorem    =      1.99621900459  :
                 :  wavefunction norm =      1.00000000000  :
                  .......................................... 


 <geterg> : there is no data group $energy 


 <skperg> : $end is missing 


 orbitals $scfmo  will be written to file mos

    irrep                 12a         13a         14a         15a         16a   
 eigenvalues H         -0.37922    -0.36015    -0.34864    -0.28735    -0.23582
            eV         -10.3192     -9.8001     -9.4872     -7.8192     -6.4170
 occupation              2.0000      2.0000      2.0000      2.0000      2.0000 

    irrep                 17a         18a         19a         20a         21a   
 eigenvalues H         -0.03148    -0.00423     0.02624     0.07321     0.07638
            eV          -0.8567     -0.1152      0.7140      1.9921      2.0785
 
 
 
 
 ==============================================================================
                           electrostatic moments
 ==============================================================================

 reference point for electrostatic moments:    0.00000   0.00000   0.00000

 
              nuc           elec       ->  total
 ------------------------------------------------------------------------------
                          charge      
 ------------------------------------------------------------------------------
          32.000000     -32.000000      -0.000000
 
 ------------------------------------------------------------------------------
                       dipole moment  
 ------------------------------------------------------------------------------
   x     -74.119556      73.825337      -0.294219
   y      74.751751     -75.453191      -0.701440
   z      15.656241     -15.785166      -0.128925
 
   | dipole moment | =     0.7715 a.u. =     1.9609 debye 
 
 ------------------------------------------------------------------------------
                     quadrupole moment
 ------------------------------------------------------------------------------
  xx     283.883619    -297.282023     -13.398404
  yy     254.302675    -277.939372     -23.636697
  zz      15.745015     -33.242626     -17.497611
  xy    -177.318106     175.555024      -1.763082
  xz     -37.743770      37.378547      -0.365223
  yz      50.438314     -51.640992      -1.202678
 
     1/3  trace=     -18.177571
     anisotropy=       9.681017
 
 ==============================================================================
 


    ------------------------------------------------------------------------
         total  cpu-time :  1 minutes and 18 seconds
         total wall-time :  2 minutes and  0 seconds
    ------------------------------------------------------------------------

   ****  ridft : all done  ****


    2018-05-18 15:44:01.683 

