 operating system is UNIX !

 ridft (missouri) : TURBOMOLE V7.2 ( 21139 ) 13 Mar 2017 at 16:07:45
 Copyright (C) 2017 TURBOMOLE GmbH, Karlsruhe


    2017-11-20 14:04:39.046 



                                  r i d f t

                        DFT program with RI approximation 
                                for coulomb part 




                                                 
                                 References:     
                                                 
          TURBOMOLE:                             
              R. Ahlrichs, M. Baer, M. Haeser, H. Horn, and
              C. Koelmel
              Electronic structure calculations on workstation
              computers: the program system TURBOMOLE
              Chem. Phys. Lett. 162: 165 (1989)
          Density Functional:                              
              O. Treutler and R. Ahlrichs                      
              Efficient Molecular Numerical Integration Schemes
              J. Chem. Phys. 102: 346 (1995)                   
          Parallel Version:                                
              Performance of parallel TURBOMOLE for Density    
              Functional Calculations                          
              M. v. Arnim and R. Ahlrichs                      
              J. Comp. Chem. 19: 1746 (1998)                   
          RI-J Method:                                     
              Auxiliary Basis Sets to approximate Coulomb      
              Potentials                                       
              Chem. Phys. Lett. 240: 283 (1995)                
              K. Eichkorn, O. Treutler, H. Oehm, M. Haeser     
              and R. Ahlrichs                                  
              Chem. Phys. Lett. 242: 652 (1995)                
                                                           
              Auxiliary Basis Sets for Main Row Atoms and their
              Use to approximate Coulomb Potentials            
              K. Eichkorn, F. Weigend, O. Treutler and         
              R. Ahlrichs                                      
              Theo. Chem. Acc. 97: 119 (1997)                   
                                                           
              Accurate Coulomb-fitting basis sets for H to Rn 
              F. Weigend                                        
              Phys. Chem. Chem. Phys. 8: 1057 (2006)            
                                                           
          Multipole accelerated RI-J (MARI-J):             
              Fast evaluation of the Coulomb potential for     
              electron densities using multipole accelerated   
              resolution of identity approximation             
              M. Sierka, A. Hogekamp and R. Ahlrichs           
              J. Chem. Phys. 118: 9136 (2003)                  
          RI-JK Method:                                     
              A fully direct RI-HF algorithm: Implementation,
              optimised auxiliary basis sets, demonstration of
              accuracy and efficiency                         
              F. Weigend                                      
              Phys. Chem. Chem. Phys. 4: 4285 (2002)           
          Two-component HF and DFT with spin-orbit coupling:  
              Self-consistent treatment of spin-orbit         
              interactions with efficient Hartree-Fock and    
              density functional methods                      
              M. K. Armbruster, F. Weigend, C. van Wüllen and 
              W. Klopper                                      
              Phys. Chem. Chem. Phys. 10: 1748 (2008)         
          Relativistic all-electron 2c calculations           
              An efficient implementation of two-component    
              relativistic exact-decoupling methods for large 
              molecules                                       
              D. Peng, N. Middendorf, F. Weigend, M. Reiher   
              J. Chem. Phys. 138, 184105 (2013)               
                                         




              +--------------------------------------------------+
              |      general information about current run       |
              +--------------------------------------------------+

 

 DENSITY CONVERGENCE CHECK SWITCHED ON !
 SCF CONVERGENCE IF RMS(delta[D]) <     0.1000000000E-06

 PBE functional
 exchange:    LDA + PBE
 correlation: LDA (PW) + PBE
 A DFT calculation using the RI-J approximation will be carried out.
 Allocatable memory for RI due to $ricore (MB):                 14000


              +--------------------------------------------------+
              | Atomic coordinate, charge and isotop information |
              +--------------------------------------------------+

                    atomic coordinates            atom    charge  isotop
         -0.91146234    1.48014379    6.17950112    c      6.000     0
          1.20108279    2.43962857    7.46188924    c      6.000     0
          2.37267150    4.68247105    6.75800446    c      6.000     0
          1.37088314    6.01960202    4.73404013    c      6.000     0
         -0.77407086    5.21409544    3.40388024    c      6.000     0
         -1.81240519    2.89055240    4.13269059    c      6.000     0
          2.55798739    8.29870296    3.98605803    o      8.000     0
          4.73319623    7.99617661    2.61822547    c      6.000     0
          6.85567924    7.41352103    3.82898847    n      7.000     0
          8.86501616    7.15678637    2.32861569    c      6.000     0
          8.76412682    7.45544436   -0.27591995    c      6.000     0
          6.65687212    8.05084576   -1.51953967    n      7.000     0
          4.63804444    8.32291983   -0.04927796    c      6.000     0
         11.31330154    6.86498199   -1.35388441    c      6.000     0
         12.81912123    6.27969378    0.75298625    n      7.000     0
         11.48120708    6.35435498    3.04818335    c      6.000     0
         15.39847857    5.28403687    0.52727414    c      6.000     0
         15.39203993    2.46588660    0.03008809    c      6.000     0
         15.02246662    0.76576796    2.02198644    c      6.000     0
         14.93292447   -1.82019145    1.56575125    c      6.000     0
         15.20753142   -2.75793008   -0.89377263    c      6.000     0
         15.56941863   -1.06141372   -2.88366573    c      6.000     0
         15.66225838    1.53162338   -2.42374155    c      6.000     0
         12.35414801    5.83381087    5.10652506    o      8.000     0
         12.03208728    6.84413024   -3.53396498    o      8.000     0
          2.38616550    8.96360537   -1.12895656    o      8.000     0
          1.12001917    7.02419010   -2.46453181    c      6.000     0
          1.93744206    6.39298547   -4.87382818    c      6.000     0
          0.61756193    4.52885825   -6.16958294    c      6.000     0
         -1.47139258    3.27273651   -5.12708979    c      6.000     0
         -2.21500005    4.00197762   -2.69656872    c      6.000     0
         -0.98426379    5.89760365   -1.32031489    c      6.000     0
          2.13431885    1.09097529    9.55165657    o      8.000     0
          4.39041146   -0.16362207    9.19722719    c      6.000     0
          6.50316765    1.08851069    9.33267703    n      7.000     0
          8.69576951   -0.25013139    9.01488861    c      6.000     0
          8.62315943   -2.90849413    8.52616054    c      6.000     0
          6.36171059   -4.15973836    8.38777627    n      7.000     0
          4.31811999   -2.83307746    8.72637379    c      6.000     0
         10.90201827   -4.24921710    8.17242215    c      6.000     0
         13.17334249   -2.97833340    8.33083598    c      6.000     0
         13.24461419   -0.35093936    8.81229616    c      6.000     0
         11.04410795    1.00933326    9.13754321    c      6.000     0
          1.99679730   -4.01261082    8.68340610    o      8.000     0
          0.99757204   -4.59177835    6.28987108    c      6.000     0
          2.06760050   -6.53799815    4.88777472    c      6.000     0
          1.00051052   -7.11156087    2.56140819    c      6.000     0
         -1.10400616   -5.83449891    1.58662610    c      6.000     0
         -2.03906904   -3.82525131    3.03710628    c      6.000     0
         -1.07571222   -3.18558366    5.41858849    c      6.000     0
          2.07355211   -9.07865516    1.09527602    o      8.000     0
          4.25574184   -8.44858994   -0.13194244    c      6.000     0
          6.38090362   -8.29099100    1.18852039    n      7.000     0
          8.38914827   -7.60398131   -0.17383906    c      6.000     0
          8.28900023   -7.12409643   -2.75044141    c      6.000     0
          6.17741735   -7.32594321   -4.11704101    n      7.000     0
          4.15567868   -7.98453277   -2.78519540    c      6.000     0
         11.03297287   -7.16558451    0.73255837    c      6.000     0
         12.37365770   -6.41373501   -1.43840681    n      7.000     0
         10.86491625   -6.34387404   -3.62955360    c      6.000     0
         15.01705326   -5.56993716   -1.38703662    c      6.000     0
         -2.04520847   -1.01875118    7.05188455    c      6.000     0
         -4.91574557   -0.95883115    7.66569912    c      6.000     0
         -6.89216243   -0.85474999    5.55606117    c      6.000     0
         -9.62110878   -0.75973499    6.54923206    c      6.000     0
         -2.18705042   -6.66594634   -0.95086442    c      6.000     0
         -5.07962624   -7.20552096   -1.04631330    c      6.000     0
         -6.95157735   -5.25521946   -0.00412982    c      6.000     0
         -9.69027663   -5.68567349   -0.85825963    c      6.000     0
         11.60846035   -5.75962910   -5.71995342    o      8.000     0
          1.89286685   -8.23676178   -3.99812433    o      8.000     0
          0.70472795   -5.93356496   -4.67387733    c      6.000     0
          1.52246167   -4.66007789   -6.81380105    c      6.000     0
          0.33584061   -2.39953144   -7.44173379    c      6.000     0
         -1.60174846   -1.36099322   -5.96290586    c      6.000     0
         -2.31011092   -2.71602206   -3.80491424    c      6.000     0
         -1.26488760   -5.04908877   -3.14692909    c      6.000     0
         11.93334632   -7.37218600    2.83379554    o      8.000     0
          1.10756782   -1.11797551   -9.64232575    o      8.000     0
          3.46063186   -0.00504987   -9.49659888    c      6.000     0
          5.47963455   -1.36334015   -9.85502623    n      7.000     0
          7.76454372   -0.16168580   -9.63185769    c      6.000     0
          7.88313889    2.47073045   -9.02163145    c      6.000     0
          5.71315184    3.84270958   -8.69070897    n      7.000     0
          3.58242531    2.63966205   -8.92949245    c      6.000     0
         10.25430948    3.65277388   -8.71457689    c      6.000     0
         12.43200024    2.25194286   -9.02368459    c      6.000     0
         12.31641085   -0.34637330   -9.62937014    c      6.000     0
         10.02246410   -1.54904324   -9.92690022    c      6.000     0
         -2.73622499    1.19194645   -6.66970842    c      6.000     0
         -5.66789677    1.33036556   -6.84556257    c      6.000     0
         -7.34529617    0.29666992   -4.72012233    c      6.000     0
        -10.17330238    0.78200130   -5.16687296    c      6.000     0
          1.33399898    3.91579241   -8.64868885    o      8.000     0
         -1.81852146    6.84045271    1.26954988    c      6.000     0
         -4.66774890    7.55063061    1.43258465    c      6.000     0
         -6.67649961    5.52333668    1.92479899    c      6.000     0
         -9.39100941    6.51976568    1.64969513    c      6.000     0
          4.03413118    5.35223575    7.74738379    h      1.000     0
         11.05794958    3.03365959    9.45500594    h      1.000     0
         15.05557639    0.60975569    8.91244040    h      1.000     0
         14.93086034   -4.00545579    8.06839406    h      1.000     0
         10.80757946   -6.25225300    7.75324175    h      1.000     0
          3.70407611   -7.55211901    5.58005643    h      1.000     0
         -3.55553956   -2.69428836    2.26621586    h      1.000     0
          3.05443356   -5.38750430   -7.95864853    h      1.000     0
         -3.70818854   -1.89692967   -2.56134579    h      1.000     0
          9.89625391   -3.55348398  -10.32946555    h      1.000     0
         14.05424091   -1.41749205   -9.83776467    h      1.000     0
         14.25857481    3.15527404   -8.78110916    h      1.000     0
         10.30591036    5.63350455   -8.19312361    h      1.000     0
         -3.81292635    3.05519482   -1.83952492    h      1.000     0
          3.55412808    7.31568181   -5.72251364    h      1.000     0
         16.30581670    6.30475457   -1.01996737    h      1.000     0
         16.35057385    5.72524158    2.30502162    h      1.000     0
         14.77655806    1.47850014    3.93037289    h      1.000     0
         14.62445215   -3.12516469    3.11875137    h      1.000     0
         15.74396353   -1.77239756   -4.80142314    h      1.000     0
         15.90968797    2.84456776   -3.98149549    h      1.000     0
         15.83453116   -6.05756932   -3.21799040    h      1.000     0
         15.94876582   -6.65284097    0.10373184    h      1.000     0
         -3.37020430    2.13940540    3.04315176    h      1.000     0
         -1.17723469   -1.34480321    8.89118254    h      1.000     0
         -1.32907066   -8.50712942   -1.29391829    h      1.000     0
         -2.10190945    1.53424465   -8.60038999    h      1.000     0
         -0.85060096    8.64717536    1.47841224    h      1.000     0
         -5.17772409    0.66010251    8.93255968    h      1.000     0
         -5.30195129   -2.65170348    8.80368474    h      1.000     0
         -5.09777521    8.53527202   -0.33789662    h      1.000     0
         -4.84540370    8.96450157    2.94051282    h      1.000     0
         -6.14072829    3.32763429   -7.15333772    h      1.000     0
         -6.18220014    0.33915981   -8.59060222    h      1.000     0
         -5.52316935   -7.56766434   -3.04108015    h      1.000     0
         -5.38712642   -8.99517362   -0.04928588    h      1.000     0
         -6.58883518    0.78553425    4.33191851    h      1.000     0
         -6.71065982   -2.53251221    4.37050911    h      1.000     0
         -6.40826944   -3.33933152   -0.56328751    h      1.000     0
         -6.89345457   -5.30733108    2.06408431    h      1.000     0
         -6.82236103    1.13173993   -2.89610266    h      1.000     0
         -7.06786461   -1.74545389   -4.54550799    h      1.000     0
         -6.45352851    3.90960322    0.64016696    h      1.000     0
         -6.43517913    4.79332705    3.84511414    h      1.000     0
        -10.29387367    1.67248715    7.97584496    c      6.000     0
         -9.95954519   -2.39325743    7.78840658    h      1.000     0
        -10.89788513   -0.98315747    4.93108627    h      1.000     0
         -9.77412798   -5.68612425   -2.93404514    h      1.000     0
        -10.81948545   -4.06536825   -0.22913358    h      1.000     0
        -10.87821675   -8.12866033    0.14848149    c      6.000     0
        -10.48922098    2.80444396   -5.51579284    h      1.000     0
        -11.18721222    0.32234883   -3.41902946    h      1.000     0
        -11.30171379   -0.74778115   -7.35474744    c      6.000     0
        -10.10673095    7.26293207   -1.05934794    c      6.000     0
         -9.66120974    8.15141944    2.90721966    h      1.000     0
        -10.68440952    5.04566617    2.31925694    h      1.000     0
        -13.08723915    1.82784962    8.75747140    c      6.000     0
         -9.11633303    1.82715785    9.67405804    h      1.000     0
         -9.82804458    3.31236565    6.78850822    h      1.000     0
        -12.90498251    7.97377339   -1.38031749    c      6.000     0
         -8.93904791    8.86103099   -1.67322939    h      1.000     0
         -9.65511886    5.68639179   -2.33312989    h      1.000     0
        -14.17716225   -0.43697851   -7.62465641    c      6.000     0
        -10.39619578   -0.18839993   -9.13308872    h      1.000     0
        -10.85739041   -2.75897069   -7.07535658    h      1.000     0
        -13.69464267   -8.40258414   -0.50752697    c      6.000     0
         -9.84692883   -9.76181266   -0.60439641    h      1.000     0
        -10.65174356   -8.19010888    2.21425417    h      1.000     0
        -14.32302802  -10.30579651    0.02340191    h      1.000     0
        -15.39294554   -6.45117298    0.79863782    c      6.000     0
        -13.93123730   -8.26342406   -2.56583618    h      1.000     0
        -13.33596676    3.44341618   10.03327504    h      1.000     0
        -14.91279808    2.10570412    6.52488270    c      6.000     0
        -13.58131956    0.13597290    9.85458433    h      1.000     0
        -13.17154624    8.79316156   -3.26648494    h      1.000     0
        -14.72731429    5.74340561   -1.06148599    c      6.000     0
        -13.38764143    9.46858252   -0.02270647    h      1.000     0
        -14.78296549   -1.33632573   -9.39189418    h      1.000     0
        -15.68693042   -1.57108516   -5.42700496    c      6.000     0
        -14.62954498    1.58084245   -7.81237229    h      1.000     0
        -16.87063137    2.25670706    7.17774242    h      1.000     0
        -14.47797515    3.81247587    5.43363745    h      1.000     0
        -14.80894265    0.48849547    5.23712354    h      1.000     0
        -16.68809687    6.34063483   -1.34640284    h      1.000     0
        -14.31229795    4.25416804   -2.43891242    h      1.000     0
        -14.60045856    4.90752638    0.82676259    h      1.000     0
        -17.72231241   -1.37147232   -5.74222415    h      1.000     0
        -15.27221132   -3.58986274   -5.21490268    h      1.000     0
        -15.24478868   -0.64588273   -3.62955219    h      1.000     0
        -17.38468037   -6.77496623    0.34016103    h      1.000     0
        -15.18854069   -6.56121307    2.85815773    h      1.000     0
        -14.93089985   -4.51906526    0.22044997    h      1.000     0
 
       center of nuclear mass  :    2.04052521   -0.03363563   -0.04474004
       center of nuclear charge:    1.71952368   -0.03126294   -0.03761957

              +--------------------------------------------------+
              |               basis set information              |
              +--------------------------------------------------+

              we will work with the 1s 3p 5d 7f 9g ... basis set
              ...i.e. with spherical basis functions...

   type   atoms  prim   cont   basis
   ---------------------------------------------------------------------------
    c       88     50     30   cc-pVTZ   [4s3p2d1f|18s5p2d1f]
    o       12     50     30   cc-pVTZ   [4s3p2d1f|18s5p2d1f]
    n       10     50     30   cc-pVTZ   [4s3p2d1f|18s5p2d1f]
    h       80     16     14   cc-pVTZ   [3s2p1d|5s2p1d]
   ---------------------------------------------------------------------------
   total:  190   6780   4420
   ---------------------------------------------------------------------------

   total number of primitive shells          :   86
   total number of contracted shells         : 1580
   total number of cartesian basis functions : 5050
   total number of SCF-basis functions       : 4420


 integral neglect threshold       :  0.66E-14
 integral storage threshold THIZE :  0.10E-04
 integral storage threshold THIME :         5

 RI-J AUXILIARY BASIS SET information:

              we will work with the 1s 3p 5d 7f 9g ... basis set
              ...i.e. with spherical basis functions...

   type   atoms  prim   cont   basis
   ---------------------------------------------------------------------------
    c       88     70     49   cc-pVTZ   [6s4p3d1f1g|12s5p4d2f1g]
    o       12     70     49   cc-pVTZ   [6s4p3d1f1g|12s5p4d2f1g]
    n       10     70     49   cc-pVTZ   [6s4p3d1f1g|12s5p4d2f1g]
    h       80     16     11   cc-pVTZ   [3s1p1d|5s2p1d]
   ---------------------------------------------------------------------------
   total:  190   8980   6270
   ---------------------------------------------------------------------------

   total number of primitive shells          :   80
   total number of contracted shells         : 2050
   total number of cartesian basis functions : 7670
   total number of SCF-basis functions       : 6270


 symmetry group of the molecule :   c1 

 the group has the following generators :
   c1(z)

    1 symmetry operations found

 there are 1 real representations :   a   

 maximum number of shells which are related by symmetry :  1


    mo occupation :
   irrep   mo's   occupied
    a     4420      387
 
 number of basis functions   :                   4420
 number of occupied orbitals :                    387
 
  
           ------------------
           density functional
           ------------------
 PBE functional
 exchange:    LDA + PBE
 correlation: LDA (PW) + PBE

 iterations will be done with small grid
  
 spherical integration : Lebedev's spherical grid
 spherical gridsize    :                     5
    i.e. gridpoints    :                   590
 value for diffuse not defined
 radial integration    : Chebyshev 2nd kind (scaling 3)
 radial gridsize       :                     8
 integration cells     :                   190
 partition function    : becke
 partition sharpness   :                     3
  

 biggest AO integral is expected to be     4.866064444
  
           ------------------------
               RI-J - INFORMATION
           ------------------------
 Contributions to RI integral batches: 
  neglected integral batches:                902061
  direct contribution:                       257332
  memory contribution:                 89597
 Memory core needed for (P|Q) and Cholesky    300 MByte
 Memory core minimum needed except of (P|Q)    17 MByte
 Total minimum memory core needed (sum)       317 MByte
  
 ****************************************
 Memory allocated for RI-J 13956 MByte
 ****************************************
                                            

          ------------------------
          nuclear repulsion energy  :   24533.9546571    
          ------------------------


         -----------------
         -S,T+V- integrals
         -----------------

 1e-integrals will be neglected if expon. factor < 0.661775E-15
 
   Difference densities algorithm switched on.
   The maximal number of linear combinations of
   difference densities is                    20 .

 DIIS switched on: error vector is FDS-SDF
 Max. Iterations for DIIS is     :   4
 DIIS matrix (see manual) 
    Scaling factor of diagonals  :  1.200
    threshold for scaling factor :  0.000

 scf convergence criterion : increment of total energy < .1000000D-08
                  and increment of one-electron energy < .1000000D-05

  MOs are in ASCII format !


 automatic virtual orbital shift switched on 
      shift if e(lumo)-e(homo) < 0.10000000    


 reading orbital data $scfmo  from file mos
 orbital characterization : expanded
 mo provided and orthogonalized by Cholesky decomposition

 DSCF restart information will be dumped onto file mos


 Starting SCF iterations

          Overall gridpoints after grid construction =        901394

 ITERATION  ENERGY          1e-ENERGY        2e-ENERGY     RMS[dD(SAO)]   TOL
   1  -4830.0035549732    -55354.232089     25990.273877    0.000D+00 0.660D-14
                            Exc = -664.814091387     Coul =  26655.0879682    
                              N = 773.99670471    
                            current damping = 0.700
 
          max. resid. norm for Fia-block=  4.102D-01 for orbital    232a         
          max. resid. fock norm         =  4.084D+00 for orbital   4093a         

 ITERATION  ENERGY          1e-ENERGY        2e-ENERGY     RMS[dD(SAO)]   TOL
   2  -4844.3543941705    -55478.827374     26100.518323    0.184D-02 0.453D-14
                            Exc = -669.419874029     Coul =  26769.9381970    
                              N = 773.99725488    
                            current damping = 0.650
 
          Norm of current diis error:  8.1417    
          max. resid. norm for Fia-block=  1.598D-01 for orbital      9a         
          max. resid. fock norm         =  4.012D-01 for orbital   4327a         

 ITERATION  ENERGY          1e-ENERGY        2e-ENERGY     RMS[dD(SAO)]   TOL
   3  -4846.5833742256    -55509.963535     26129.425503    0.951D-03 0.343D-14
                            Exc = -673.127415089     Coul =  26802.5529185    
                              N = 773.99759837    
                            current damping = 0.550
 
          Norm of current diis error:  4.1459    
          max. resid. norm for Fia-block=  6.506D-02 for orbital    382a         
          max. resid. fock norm         =  7.248D-02 for orbital    409a         

 ITERATION  ENERGY          1e-ENERGY        2e-ENERGY     RMS[dD(SAO)]   TOL
   4  -4847.3089031408    -55526.764815     26145.501255    0.813D-03 0.283D-14
                            Exc = -673.018513445     Coul =  26818.5197685    
                              N = 773.99771906    
                            current damping = 0.450
 
          Norm of current diis error:  1.8821    
          max. resid. norm for Fia-block=  4.913D-02 for orbital    122a         
          max. resid. fock norm         =  9.017D-02 for orbital   4326a         

 ITERATION  ENERGY          1e-ENERGY        2e-ENERGY     RMS[dD(SAO)]   TOL
   5  -4847.4067060243    -55531.719372     26150.358009    0.452D-03 0.258D-14
                            Exc = -674.310655732     Coul =  26824.6686648    
                              N = 773.99780675    
                            current damping = 0.350
 
          Norm of current diis error:  1.3768    
          max. resid. norm for Fia-block=  2.306D-02 for orbital    288a         
          max. resid. fock norm         =  3.804D-02 for orbital   4334a         
          mo-orthogonalization: Cholesky decomposition

 ITERATION  ENERGY          1e-ENERGY        2e-ENERGY     RMS[dD(SAO)]   TOL
   6  -4847.4756988499    -55534.950849     26153.520494    0.269D-03 0.244D-14
                            Exc = -674.366215558     Coul =  26827.8867091    
                              N = 773.99782755    
                            current damping = 0.250
 
          Norm of current diis error: 0.63933    
          max. resid. norm for Fia-block=  1.088D-02 for orbital    367a         
          max. resid. fock norm         =  1.577D-02 for orbital   4321a         

 ITERATION  ENERGY          1e-ENERGY        2e-ENERGY     RMS[dD(SAO)]   TOL
   7  -4847.4887976866    -55535.816505     26154.373051    0.129D-03 0.238D-14
                            Exc = -674.194532763     Coul =  26828.5675834    
                              N = 773.99782203    
                            current damping = 0.150
 
          Norm of current diis error: 0.33513    
          max. resid. norm for Fia-block=  3.949D-03 for orbital    312a         
          max. resid. fock norm         =  9.690D-03 for orbital   4387a         
          irrep a   : virtual orbitals shifted by    0.01126

 ITERATION  ENERGY          1e-ENERGY        2e-ENERGY     RMS[dD(SAO)]   TOL
   8  -4847.4915598241    -55534.582100     26153.135883    0.569D-04 0.236D-14
                            Exc = -674.260391070     Coul =  26827.3962739    
                              N = 773.99782929    
                            current damping = 0.200
 
          Norm of current diis error: 0.20990    
          max. resid. norm for Fia-block=  2.337D-03 for orbital    384a         
          max. resid. fock norm         =  5.149D-03 for orbital   4254a         
          irrep a   : virtual orbitals shifted by    0.00671

 ITERATION  ENERGY          1e-ENERGY        2e-ENERGY     RMS[dD(SAO)]   TOL
   9  -4847.4930412088    -55535.172606     26153.724908    0.328D-04 0.236D-14
                            Exc = -674.310440685     Coul =  26828.0353487    
                              N = 773.99782855    
                            current damping = 0.250
 
          Norm of current diis error: 0.10362    
          max. resid. norm for Fia-block=  1.094D-03 for orbital    384a         
          max. resid. fock norm         =  1.822D-03 for orbital   4244a         
          irrep a   : virtual orbitals shifted by    0.00319

 ITERATION  ENERGY          1e-ENERGY        2e-ENERGY     RMS[dD(SAO)]   TOL
  10  -4847.4933837094    -55535.370589     26153.922549    0.129D-04 0.235D-14
                            Exc = -674.280333866     Coul =  26828.2028824    
                              N = 773.99782810    
                            current damping = 0.100
 
          Norm of current diis error: 0.44033E-01
          max. resid. norm for Fia-block=  6.167D-04 for orbital    375a         
          max. resid. fock norm         =  1.048D-03 for orbital   4342a         
          irrep a   : virtual orbitals shifted by    0.01542
          mo-orthogonalization: Cholesky decomposition

 ITERATION  ENERGY          1e-ENERGY        2e-ENERGY     RMS[dD(SAO)]   TOL
  11  -4847.4934296623    -55535.071644     26153.623557    0.804D-05 0.234D-14
                            Exc = -674.278922063     Coul =  26827.9024794    
                              N = 773.99782834    
                            current damping = 0.150
 
          Norm of current diis error: 0.28810E-01
          max. resid. norm for Fia-block=  3.871D-04 for orbital    375a         
          max. resid. fock norm         =  7.410D-04 for orbital   4342a         
          irrep a   : virtual orbitals shifted by    0.01099

 ITERATION  ENERGY          1e-ENERGY        2e-ENERGY     RMS[dD(SAO)]   TOL
  12  -4847.4934571438    -55535.176962     26153.728848    0.478D-05 0.234D-14
                            Exc = -674.282734869     Coul =  26828.0115831    
                              N = 773.99782819    
                            current damping = 0.200
 
          Norm of current diis error: 0.15202E-01
          max. resid. norm for Fia-block=  1.821D-04 for orbital    367a         
          max. resid. fock norm         =  2.867D-04 for orbital   4321a         
          irrep a   : virtual orbitals shifted by    0.00734

 ITERATION  ENERGY          1e-ENERGY        2e-ENERGY     RMS[dD(SAO)]   TOL
  13  -4847.4934645806    -55535.178858     26153.730736    0.202D-05 0.234D-14
                            Exc = -674.281823846     Coul =  26828.0125599    
                              N = 773.99782830    
                            current damping = 0.050
 
          Norm of current diis error: 0.76818E-02
          max. resid. norm for Fia-block=  1.091D-04 for orbital    367a         
          max. resid. fock norm         =  1.813D-04 for orbital   4387a         
          irrep a   : virtual orbitals shifted by    0.01886

 ITERATION  ENERGY          1e-ENERGY        2e-ENERGY     RMS[dD(SAO)]   TOL
  14  -4847.4934661815    -55535.186578     26153.738455    0.112D-05 0.233D-14
                            Exc = -674.281551239     Coul =  26828.0200058    
                              N = 773.99782822    
                            current damping = 0.050
 
          Norm of current diis error: 0.47507E-02
          max. resid. norm for Fia-block=  5.384D-05 for orbital    367a         
          max. resid. fock norm         =  1.226D-04 for orbital   4387a         
          irrep a   : virtual orbitals shifted by    0.01891

 ITERATION  ENERGY          1e-ENERGY        2e-ENERGY     RMS[dD(SAO)]   TOL
  15  -4847.4934668090    -55535.177676     26153.729552    0.713D-06 0.233D-14
                            Exc = -674.281718666     Coul =  26828.0112711    
                              N = 773.99782828    
                            current damping = 0.100
 
          Norm of current diis error: 0.26764E-02
          max. resid. norm for Fia-block=  2.977D-05 for orbital    387a         
          max. resid. fock norm         =  5.258D-05 for orbital   4355a         
          irrep a   : virtual orbitals shifted by    0.01503
          mo-orthogonalization: Cholesky decomposition

 ITERATION  ENERGY          1e-ENERGY        2e-ENERGY     RMS[dD(SAO)]   TOL
  16  -4847.4934670283    -55535.178189     26153.730065    0.372D-06 0.233D-14
                            Exc = -674.281914472     Coul =  26828.0119796    
                              N = 773.99782826    
                            current damping = 0.150
 
          Norm of current diis error: 0.14235E-02
          max. resid. norm for Fia-block=  1.532D-05 for orbital    374a         
          max. resid. fock norm         =  2.727D-05 for orbital   4280a         
          irrep a   : virtual orbitals shifted by    0.01116

 ITERATION  ENERGY          1e-ENERGY        2e-ENERGY     RMS[dD(SAO)]   TOL
  17  -4847.4934670831    -55535.181736     26153.733611    0.196D-06 0.232D-14
                            Exc = -674.281711216     Coul =  26828.0153227    
                              N = 773.99782826    
                            current damping = 0.050
 
          Norm of current diis error: 0.71992E-03
          max. resid. norm for Fia-block=  1.010D-05 for orbital    375a         
          max. resid. fock norm         =  1.707D-05 for orbital   4342a         
          irrep a   : virtual orbitals shifted by    0.01890

 ITERATION  ENERGY          1e-ENERGY        2e-ENERGY     RMS[dD(SAO)]   TOL
  18  -4847.4934670955    -55535.178657     26153.730532    0.128D-06 0.232D-14
                            Exc = -674.281740382     Coul =  26828.0122728    
                              N = 773.99782826    
                            current damping = 0.100
 
          Norm of current diis error: 0.46639E-03
          max. resid. norm for Fia-block=  5.997D-06 for orbital    375a         
          max. resid. fock norm         =  1.173D-05 for orbital   4342a         
          irrep a   : virtual orbitals shifted by    0.01503

 DENSITY CONVERGED !


 ITERATION  ENERGY          1e-ENERGY        2e-ENERGY     RMS[dD(SAO)]   TOL
  19  -4847.4934671029    -55535.179891     26153.731767    0.759D-07 0.232D-14
                            Exc = -674.281782898     Coul =  26828.0135496    
                              N = 773.99782826    
                            current damping = 0.150
 
          Norm of current diis error: 0.26574E-03
          max. resid. norm for Fia-block=  2.955D-06 for orbital    367a         
          max. resid. fock norm         =  5.114D-06 for orbital   4346a         
          irrep a   : virtual orbitals shifted by    0.01117

 DENSITY CONVERGED !


 ITERATION  ENERGY          1e-ENERGY        2e-ENERGY     RMS[dD(SAO)]   TOL
  20  -4847.4934671050    -55535.179936     26153.731812    0.392D-07 0.232D-14
                            Exc = -674.281765750     Coul =  26828.0135776    
                              N = 773.99782826    
                            current damping = 0.050
 
          Norm of current diis error: 0.13738E-03
          max. resid. norm for Fia-block=  1.990D-06 for orbital    367a         
          max. resid. fock norm         =  3.234D-06 for orbital   4387a         
          irrep a   : virtual orbitals shifted by    0.01889
          mo-orthogonalization: Cholesky decomposition

 DENSITY CONVERGED !


 ITERATION  ENERGY          1e-ENERGY        2e-ENERGY     RMS[dD(SAO)]   TOL
  21  -4847.4934671066    -55535.179734     26153.731610    0.188D-07 0.232D-14
                            Exc = -674.281763787     Coul =  26828.0133741    
                              N = 773.99782826    
                            current damping = 0.100
 
          Norm of current diis error: 0.10165E-03
          max. resid. norm for Fia-block=  9.627D-07 for orbital    367a         
          max. resid. fock norm         =  1.995D-06 for orbital   4387a         
          irrep a   : virtual orbitals shifted by    0.01503

 DENSITY CONVERGED !


 ITERATION  ENERGY          1e-ENERGY        2e-ENERGY     RMS[dD(SAO)]   TOL
  22  -4847.4934671051    -55535.179826     26153.731702    0.123D-07 0.660D-14
                            Exc = -674.281757680     Coul =  26828.0134594    
                              N = 773.99782826    
                            current damping = 0.150
 
          Norm of current diis error: 0.48915E-04
          max. resid. norm for Fia-block=  4.670D-07 for orbital    374a         
          max. resid. fock norm         =  8.571D-07 for orbital   4280a         
          irrep a   : virtual orbitals shifted by    0.01117

 DENSITY CONVERGED !


 ITERATION  ENERGY          1e-ENERGY        2e-ENERGY     RMS[dD(SAO)]   TOL
  23  -4847.4934671045    -55535.179792     26153.731668    0.592D-08 0.419D-14
                            Exc = -674.281763488     Coul =  26828.0134310    
                              N = 773.99782826    
                            current damping = 0.200
 
          Norm of current diis error: 0.23355E-04
          max. resid. norm for Fia-block=  2.570D-07 for orbital    375a         
          max. resid. fock norm         =  4.269D-07 for orbital    210a         
          irrep a   : virtual orbitals shifted by    0.00730

 ENERGY & DENSITY CONVERGED !

          Overall gridpoints after grid construction =       2843067

 ITERATION  ENERGY          1e-ENERGY        2e-ENERGY     RMS[dD(SAO)]   TOL
  24  -4847.4938158451    -55535.179831     26153.731358    0.293D-08 0.386D-14
                            Exc = -674.282113458     Coul =  26828.0134717    
                              N = 774.00022135    
                            current damping = 0.250
 
          Norm of current diis error: 0.13578E-04
          max. resid. norm for Fia-block=  2.088D-07 for orbital    375a         
          max. resid. fock norm         =  3.833D-07 for orbital   4342a         

 End of SCF iterations

   convergence criteria satisfied after   24 iterations


                  ------------------------------------------ 
                 |  total energy      =  -4847.49381584507  |
                  ------------------------------------------ 
                 :  kinetic energy    =   4816.09677844147  :
                 :  potential energy  =  -9663.59059428654  :
                 :  virial theorem    =      1.99352303714  :
                 :  wavefunction norm =      1.00000000000  :
                  .......................................... 


 <geterg> : there is no data group $energy 


 <skperg> : $end is missing 


 orbitals $scfmo  will be written to file mos

    irrep                383a        384a        385a        386a        387a   
 eigenvalues H         -0.22382    -0.22014    -0.21744    -0.21488    -0.21319
            eV          -6.0905     -5.9904     -5.9169     -5.8472     -5.8012
 occupation              2.0000      2.0000      2.0000      2.0000      2.0000 

    irrep                388a        389a        390a        391a        392a   
 eigenvalues H         -0.13594    -0.13554    -0.12312    -0.12243    -0.10618
            eV          -3.6992     -3.6882     -3.3503     -3.3314     -2.8892
 
 
 
 
 ==============================================================================
                           electrostatic moments
 ==============================================================================

 reference point for electrostatic moments:    0.00000   0.00000   0.00000

 
              nuc           elec       ->  total
 ------------------------------------------------------------------------------
                          charge      
 ------------------------------------------------------------------------------
         774.000000    -774.000000      -0.000000
 
 ------------------------------------------------------------------------------
                       dipole moment  
 ------------------------------------------------------------------------------
   x    1330.911330   -1331.512626      -0.601296
   y     -24.197514      24.193596      -0.003917
   z     -29.117544      29.105317      -0.012227
 
   | dipole moment | =     0.6014 a.u. =     1.5287 debye 
 
 ------------------------------------------------------------------------------
                     quadrupole moment
 ------------------------------------------------------------------------------
  xx   61582.017494  -62013.473290    -431.455795
  yy   20882.405342  -21364.473215    -482.067873
  zz   24445.819454  -24950.472340    -504.652885
  xy    -141.271103     140.685465      -0.585638
  xz    -299.855662     297.321857      -2.533804
  yz     103.668487     -99.980840       3.687647
 
     1/3  trace=    -472.725518
     anisotropy=      65.389795
 
 ==============================================================================
 


    ------------------------------------------------------------------------
         total  cpu-time :  2 hours 53 minutes and 22 seconds
         total wall-time :  2 hours 55 minutes and 44 seconds
    ------------------------------------------------------------------------

   ****  ridft : all done  ****


    2017-11-20 17:00:23.472 

 ridft ended normally
