
   OpenMP run-time library returned nthreads = 20

 ricc2 (c-9-372.local) : TURBOMOLE V7.2 ( 21471 ) 11 Oct 2017 at 17:04:51
 Copyright (C) 2017 TURBOMOLE GmbH, Karlsruhe


    2018-04-05 18:51:02.439 



                              R I C C 2 - PROGRAM

                          the quantum chemistry groups
                             at the universities in
                           Karlsruhe, Bochum & Mainz
                                   Germany



   *-----------------------------------------------------------------------*
   |                     program will use 20 thread(s)                     |
   *-----------------------------------------------------------------------*


              +--------------------------------------------------+
              | Atomic coordinate, charge and isotop information |
              +--------------------------------------------------+

                    atomic coordinates            atom    charge  isotop
          6.05659189   -0.94048895   -4.35480813    c      0.000     0
          7.49962662   -2.53265446   -5.84947775    c      0.000     0
          6.18012529   -4.87531841   -6.04637788    c      0.000     0
          3.96656005   -4.66464663   -4.65960429    c      0.000     0
          6.42436698    1.79798203   -3.59417940    c      0.000     0
          9.07738196    2.66591966   -4.49760076    c      0.000     0
          4.43700767    3.41137206   -4.89113411    c      0.000     0
          4.50257883    4.42215176   -7.30482428    c      0.000     0
          1.88514808   -6.56016261   -4.13169381    c      0.000     0
          1.73699803   -7.08664932   -1.25279560    c      0.000     0
          2.51832904   -9.05559727   -5.48368597    c      0.000     0
         -0.64075295   -5.59626660   -5.09386150    c      0.000     0
         -1.99428580   -6.23438912   -7.24654003    c      0.000     0
          3.92163817   -2.26122403   -3.65805003    n      0.000     0
          2.11854219    4.01750368   -3.85982585    n      0.000     0
         -2.06216339   -3.83183561   -3.80426755    n      0.000     0
         -3.91783079    4.84255687   -4.57716225    c      0.000     0
         -6.49117714    5.35603384   -4.40570077    c      0.000     0
         -7.79988974    3.00395119   -4.33751600    c      0.000     0
         -6.01029284    1.08346078   -4.43579244    c      0.000     0
         -1.74797667    6.70337984   -4.89577494    c      0.000     0
         -1.42553625    8.27662569   -2.43621438    c      0.000     0
         -2.47096983    8.55352329   -7.03988900    c      0.000     0
          0.72535695    5.44738358   -5.55838143    c      0.000     0
          2.17770611    5.69745616   -7.72232265    c      0.000     0
         -6.37705258   -1.73026089   -3.95463425    c      0.000     0
         -8.94169076   -2.54048547   -5.12766108    c      0.000     0
         -4.30254376   -3.36355888   -5.05971943    c      0.000     0
         -4.29310159   -4.83827197   -7.22400518    c      0.000     0
         -3.67566487    2.24167950   -4.56805342    n      0.000     0
          6.38858894    2.07426602   -0.73596175    c      0.000     0
          6.36277500    4.21756192    0.82399973    c      0.000     0
          6.83851488    0.02927768    0.75978099    n      0.000     0
          6.84100511    3.39257236    3.33556150    c      0.000     0
          7.12616251    0.75961049    3.25103206    c      0.000     0
         -6.55501806   -2.12478905   -1.09642806    c      0.000     0
         -6.51959921   -4.28526775    0.41638225    c      0.000     0
         -7.02010736   -0.08550083    0.43477021    n      0.000     0
         -7.07490658   -3.51386973    2.94265858    c      0.000     0
         -7.39764716   -0.89298541    2.90946676    c      0.000     0
          7.64410523   -1.05781758    5.21820343    c      0.000     0
         -7.76535338    0.91165175    4.91149480    c      0.000     0
          8.05623684   -0.57723657    7.45297736    o      0.000     0
         -8.35156648    0.48033527    7.10358177    o      0.000     0
          7.64428665   -3.46725220    4.27852444    o      0.000     0
         -7.33950547    3.36065213    4.05036823    o      0.000     0
         -7.80979450    5.37854477    5.88685588    c      0.000     0
          8.16515392   -5.48501931    6.07708097    c      0.000     0
         -6.87136406    7.81209282    4.70474429    c      0.000     0
          7.43599124   -7.95100247    4.81528474    c      0.000     0
         -7.15695316   -5.21084738    5.20910747    c      0.000     0
          6.96452503    5.04158557    5.63832198    c      0.000     0
          4.43782184    5.14437392    7.07591983    c      0.000     0
         -4.55158175   -5.51188746    6.46645904    c      0.000     0
         -6.01187267   -6.95325655   -0.39750406    c      0.000     0
          5.95720012    6.90800520    0.02134905    c      0.000     0
          1.46621179   -2.75248977    7.65079812    c      6.000     0
          1.28737432   -2.13045025    5.10073749    c      6.000     0
          0.29962023   -1.23487408    9.46856742    c      6.000     0
          0.00052923    0.05207755    4.34399601    c      6.000     0
         -1.02348263    0.92491072    8.72447582    c      6.000     0
         -1.13924409    1.57794195    6.17720516    c      6.000     0
         -0.10402960    0.74837421    1.59232937    c      6.000     0
         -0.65014532    3.02318744    1.01454498    o      8.000     0
          0.36854886   -0.95827276   -0.01398108    o      8.000     0
          9.28565613   -2.06932957   -6.72633419    h      0.000     0
          6.79321048   -6.52714517   -7.08117689    h      0.000     0
          9.37092176    4.64626899   -3.99670878    h      0.000     0
          9.25944118    2.46053765   -6.54473838    h      0.000     0
         10.52759429    1.51461458   -3.58182930    h      0.000     0
          6.05144490    4.26291571   -8.62750194    h      0.000     0
          0.27982670   -8.50438954   -0.86582365    h      0.000     0
          1.29265351   -5.37395795   -0.18598621    h      0.000     0
          3.56089979   -7.80730168   -0.59452269    h      0.000     0
          2.69181223   -8.78824248   -7.52610908    h      0.000     0
          1.03007454  -10.44399733   -5.12328603    h      0.000     0
          4.30965795   -9.80198284   -4.76987810    h      0.000     0
         -1.41868545   -7.59066178   -8.66231010    h      0.000     0
          2.57356174   -1.58252655   -2.43153520    h      0.000     0
          1.50846242    3.56438868   -2.07498195    h      0.000     0
         -1.52444497   -2.96927802   -2.15453012    h      0.000     0
         -7.34447551    7.21300451   -4.45711214    h      0.000     0
         -9.82595381    2.75349830   -4.23634640    h      0.000     0
         -0.03208176    9.77368137   -2.73859505    h      0.000     0
         -0.74610593    7.10366656   -0.87359857    h      0.000     0
         -3.22303730    9.16990622   -1.92035885    h      0.000     0
         -2.76745327    7.54429127   -8.81873341    h      0.000     0
         -0.97296619    9.95460907   -7.29972141    h      0.000     0
         -4.21638726    9.54412258   -6.55212251    h      0.000     0
          1.64796304    6.73091949   -9.40282530    h      0.000     0
         -8.92269148   -2.23985922   -7.17117518    h      0.000     0
        -10.47974873   -1.43506770   -4.30717737    h      0.000     0
         -9.28166111   -4.53743262   -4.73455741    h      0.000     0
         -5.79670197   -4.95706858   -8.60287613    h      0.000     0
         -1.99662600    1.31515907   -4.61185182    h      0.000     0
          6.96297247   -1.77329282    0.13383818    h      0.000     0
         -7.85907237    1.47963155   -0.30429348    h      0.000     0
         -6.80560794    4.91755805    7.62909624    h      0.000     0
         -9.83801452    5.43325233    6.26877102    h      0.000     0
          7.07441050   -5.13118966    7.79448202    h      0.000     0
         10.17804572   -5.42364362    6.55270679    h      0.000     0
         -4.81349990    7.78559081    4.43759822    h      0.000     0
         -7.28545848    9.39743953    5.96327192    h      0.000     0
         -7.81805652    8.18461347    2.90008922    h      0.000     0
          5.41727994   -7.97830075    4.36471608    h      0.000     0
          7.84188395   -9.52262344    6.09853259    h      0.000     0
          8.50913504   -8.23602480    3.07031263    h      0.000     0
         -7.85924735   -7.06987279    4.62290866    h      0.000     0
         -8.49428123   -4.44789121    6.58775211    h      0.000     0
          7.50517407    6.95760353    5.06300307    h      0.000     0
          8.43286051    4.33632749    6.91350534    h      0.000     0
          2.91723795    5.81407688    5.84346925    h      0.000     0
          4.57682062    6.41539211    8.70577975    h      0.000     0
          3.91792017    3.26151990    7.74681143    h      0.000     0
         -3.16477089   -6.27087100    5.13349873    h      0.000     0
         -4.67172345   -6.79492574    8.08647037    h      0.000     0
         -3.85279099   -3.68449622    7.12510105    h      0.000     0
         -5.91542246   -7.10980179   -2.45297909    h      0.000     0
         -7.50152793   -8.21941343    0.28654148    h      0.000     0
         -4.21575455   -7.64081271    0.36993221    h      0.000     0
          6.09687785    7.11359742   -2.02839699    h      0.000     0
          7.35662936    8.16073709    0.89359529    h      0.000     0
          4.08350239    7.59033417    0.58730028    h      0.000     0
          2.49262025   -4.43260770    8.22903698    h      1.000     0
          2.16565425   -3.29952619    3.66593136    h      1.000     0
          0.41879929   -1.73420128   11.45650829    h      1.000     0
         -1.93838164    2.10982054   10.12927379    h      1.000     0
         -2.09070617    3.29920439    5.59812713    h      1.000     0
         -4.47717701    4.53608054    0.66086160    na    11.000     0
 
       center of nuclear mass  :   -0.09748777    0.10733744   -0.05051306
       center of nuclear charge:   -0.61799807    0.61448426    4.22569625

              +--------------------------------------------------+
              |               basis set information              |
              +--------------------------------------------------+

              we will work with the 1s 3p 5d 7f 9g ... basis set
              ...i.e. with spherical basis functions...

   type   atoms  prim   cont   basis
   ---------------------------------------------------------------------------
    c       53     77     55   cc-pVQZ   [5s4p3d2f1g|21s6p3d2f1g]
    n        6     77     55   cc-pVQZ   [5s4p3d2f1g|21s6p3d2f1g]
    o        6     77     55   cc-pVQZ   [5s4p3d2f1g|21s6p3d2f1g]
    h       63     32     30   cc-pVQZ   [4s3p2d1f|6s3p2d1f]
    na       1    152     59   cc-pVQZ   [6s5p3d2f1g|51s21p3d2f1g]
   ---------------------------------------------------------------------------
   total:  129   7173   5524
   ---------------------------------------------------------------------------

   total number of primitive shells          :  189
   total number of contracted shells         : 1622
   total number of cartesian basis functions : 6829
   total number of SCF-basis functions       : 5524


 symmetry group of the molecule :   c1 

 the group has the following generators :
   c1(z)

    1 symmetry operations found

 there are 1 real representations :   a   


   =========================================================================


     restricted closed shell calculation for the wavefunction models:
               MP2        - Second Order Moeller Plesset PT


     global parameters for ricc2 program:

        hard restart (reuse of interm.) :  disabled
        soft restart (reuse of vectors) :  disabled
        threshold for vector function   :    0.100000E-05
        convergence threshold energy    :    0.100000E-06
        linear dependence threshold     :    0.100000E-13
        global print level              :      1
        maximum number of iterations    :   300
        maximum number DIIS vectors     :    10
        max. dim. of reduced space      :   100
        core memory limit (MB)          : 95367


     MP2 energy only: Energy will be calculated directly from T2 amplitudes!

     Scratch Directory : 


   =========================================================================

    der. integral neglect threshold  :  0.10E-07
    integral neglect threshold       :  0.49E-12
    integral storage threshold THIZE :  0.10E-04
    integral storage threshold THIME :         5


                  +------------------------------------------+
                  |     Auxiliary basis set information      |
                  +------------------------------------------+

              we will work with the 1s 3p 5d 7f 9g ... basis set
              ...i.e. with spherical basis functions...

   type   atoms  prim   cont   basis
   ---------------------------------------------------------------------------
    c       53    132    132   cc-pVQZ   [8s7p6d5f3g1h|8s7p6d5f3g1h]
    n        6    132    132   cc-pVQZ   [8s7p6d5f3g1h|8s7p6d5f3g1h]
    o        6    132    132   cc-pVQZ   [8s7p6d5f3g1h|8s7p6d5f3g1h]
    h       63     55     55   cc-pVQZ   [5s4p3d2f1g|5s4p3d2f1g]
    na       1    158    158   cc-pVQZ   [11s9p8d6f3g1h|11s9p8d6f3g1h]
   ---------------------------------------------------------------------------
   total:  129  12203  12203
   ---------------------------------------------------------------------------

   total number of primitive shells          :  143
   total number of contracted shells         : 2933
   total number of cartesian basis functions :16387
   total number of SCF-basis functions       :12203


 maximum number of shells which are related by symmetry :  1


 The symmetry information takes   1 MB

*---------------------------------------------------------------------*
|               simplified C1 algorithm will be applied               |
*---------------------------------------------------------------------*
  MOs are in ASCII format !


 reading orbital data $scfmo  from file mos
 orbital characterization : scfconv=7



              +--------------------------------------------+
              | list of orbitals that will be kept frozen: |
              +--------------------------------------------+
              |   irrep   index      energy     occ/vir    |
              +--------------------------------------------+
              |   a         1      -40.5289     occupied   |
              |   a         2      -20.4699     occupied   |
              |   a         3      -20.4476     occupied   |
              |   a         4      -11.3048     occupied   |
              |   a         5      -11.2267     occupied   |
              |   a         6      -11.2263     occupied   |
              |   a         7      -11.2243     occupied   |
              |   a         8      -11.2199     occupied   |
              |   a         9      -11.2168     occupied   |
              |   a        10      -11.2150     occupied   |
              +--------------------------------------------+



   Molecular Orbital Statistic:
   ============================

   -----------------------------
   orbitals in total:
   -----------------------------
    frozen occupied :     10
    active occupied :     27
    active virtual  :   5487
    frozen virtual  :      0
    all together    :   5524
   -----------------------------


     time in riccmos       cpu: 41.15 sec    wall: 21.36 sec    ratio:  1.9

     total memory allocated for calculation of (Q|P)**(-1/2) : 1705 MiB


     calculation of (P|Q) ...
     time in lp2sym        cpu: 42.82 sec    wall:  2.30 sec    ratio: 18.6


     calculation of the Cholesky decomposition of (P|Q)**(-1) ...
     time in invmetri      cpu:  2 min 35 s  wall:  0 min 15 s  ratio: 10.7

   threshold for RMS(d[D]) in SCF was     :  0.10E-06
   integral neglect threshold             :  0.49E-12
   derivative integral neglect threshold  :  0.10E-07


   =========================================================================

     Energy of reference wave function is  -579.7970479053999
     Maximum orbital residual is           0.2502209937742E-04


     Number of symmetry-nonredundant auxiliary basis functions:    12203

     Block lengths for integral files:
        frozen occupied (BOI):        1 MiB
        active occupied (BJI):        3 MiB
        active virtual  (BAI):      511 MiB
        frozen virtual  (BGI):        0 MiB
               general  (BTI):      515 MiB

   =========================================================================




   **************************************************************************
   *                                                                        *
   *          OPTIMIZATION OF THE GROUND STATE CLUSTER AMPLITUDES           *
   *                                                                        *
   **************************************************************************


   Iter.   MP2 energy       Norm(Omega)    Norm(t1)  Norm(t2)     cpu    wall
   ...........................................................................
    1   -581.5793488570     ------          0.00000   0.43395  235.99   11.91
   ...........................................................................


     time in total         cpu:  3 h 56 min  wall:  0 h 11 min  ratio: 19.8


     **********************************************************************
     *                                                                    *
     *   RHF  energy                             :   -579.7970479054      *
     *   MP2 correlation energy (doubles)        :     -1.7823009516      *
     *                                                                    *
     *   Final MP2 energy                        :   -581.5793488570      *
     *                                                                    *
     *    E(S)   =     -1.0991375268      E(T)   =     -0.6831634248      *
     *    E(OS)  =     -1.3268586684      E(SS)  =     -0.4554422832      *
     *                                                                    *
     *   SCS-MP2 energy                          :   -581.5410924019      *
     *   (computed with  C(OS) =   1.2000  and  C(SS) =   0.3333)         *
     *                                                                    *
     *   SOS-MP2 energy                          :   -581.5219641743      *
     *   (computed with  C(OS) =   1.3000)                                *
     *                                                                    *
     *   Norm of MP1 T2 amplitudes               :      0.4339453482      *
     *                                                                    *
     **********************************************************************



    ------------------------------------------------------------------------
         total  cpu-time : 11 hours 37 minutes and 40 seconds
         total wall-time : 43 minutes and  1 seconds
    ------------------------------------------------------------------------

   ****  ricc2 : all done  ****


    2018-04-05 19:34:03.346 

