
   OpenMP run-time library returned nthreads = 28
 operating system is UNIX !

 dscf (c-19-414) : TURBOMOLE V7.3 ( 22142 ) 4 Jul 2018 at 18:12:42
 Copyright (C) 2018 TURBOMOLE GmbH, Karlsruhe


    2019-04-02 16:06:31.698 



                             d s c f - program

                   idea & directorship : reinhart ahlrichs
                   program development : marco haeser
                                         michael baer
                           dft version : oliver treutler


                          quantum chemistry group
                          universitaet  karlsruhe
                                  germany




                          References             
                                                 
          TURBOMOLE:                             
              R. Ahlrichs, M. Baer, M. Haeser, H. Horn, and
              C. Koelmel
              Electronic structure calculations on workstation
              computers: the program system TURBOMOLE
              Chem. Phys. Lett. 162: 165 (1989)
          Density Functional:                              
              O. Treutler and R. Ahlrichs                      
              Efficient Molecular Numerical Integration Schemes
              J. Chem. Phys. 102: 346 (1995)                   
          Parallel Version:                                
              Performance of parallel TURBOMOLE for Density    
              Functional Calculations                          
              M. v. Arnim and R. Ahlrichs                      
              J. Comp. Chem. 19: 1746 (1998)                   
                                         




              +--------------------------------------------------+
              | Atomic coordinate, charge and isotop information |
              +--------------------------------------------------+

                    atomic coordinates            atom    charge  isotop
         -1.04469923   -0.19218040   -0.00094257    o      8.000     0
         -1.64738696    1.51516767    0.00027288    h      1.000     0
          0.77981344   -0.00346245   -0.00047585    h      1.000     0
          4.46735224    0.18259041    0.00027741    n      7.000     0
          5.78242520    0.11839492    2.16353733    c      6.000     0
          4.67755420    0.16301313    3.88482845    h      1.000     0
          8.40729938   -0.00478203    2.25801620    c      6.000     0
          9.36332389   -0.05174958    4.06143688    h      1.000     0
          9.75120296   -0.06738072   -0.00003862    c      6.000     0
         11.79180474   -0.16521855   -0.00019060    h      1.000     0
          8.40702508   -0.00490799   -2.25788585    c      6.000     0
          9.36284279   -0.05191120   -4.06143783    h      1.000     0
          5.78213876    0.11829269   -2.16312315    c      6.000     0
          4.67708572    0.16289146   -3.88427164    h      1.000     0
 
       center of nuclear mass  :    5.59280947    0.03069611   -0.00005102
       center of nuclear charge:    5.59037419    0.04359849   -0.00004617

              +--------------------------------------------------+
              |               basis set information              |
              +--------------------------------------------------+

              we will work with the 1s 3p 5d 7f 9g ... basis set
              ...i.e. with spherical basis functions...

   type   atoms  prim   cont   basis
   ---------------------------------------------------------------------------
    o        1     50     30   cc-pVTZ   [4s3p2d1f|18s5p2d1f]
    h        7     16     14   cc-pVTZ   [3s2p1d|5s2p1d]
    n        1     50     30   cc-pVTZ   [4s3p2d1f|18s5p2d1f]
    c        5     50     30   cc-pVTZ   [4s3p2d1f|18s5p2d1f]
   ---------------------------------------------------------------------------
   total:   14    462    308
   ---------------------------------------------------------------------------

   total number of primitive shells          :   86
   total number of contracted shells         :  112
   total number of cartesian basis functions :  350
   total number of SCF-basis functions       :  308


 integral neglect threshold       :  0.95E-13
 integral storage threshold THIZE :  0.10E-04
 integral storage threshold THIME :         5


 DENSITY CONVERGENCE CHECK SWITCHED ON !
 SCF CONVERGENCE IF RMS(delta[D]) <     0.1000000000E-06


 symmetry group of the molecule :   c1 

 the group has the following generators :
   c1(z)

    1 symmetry operations found

 there are 1 real representations :   a   

 maximum number of shells which are related by symmetry :  1


    mo occupation :
   irrep   mo's   occupied
    a      308       26
 
 number of basis functions   :                    308
 number of occupied orbitals :                     26
 

 automatic virtual orbital shift switched on 
      shift if e(lumo)-e(homo) < 0.10000000    


          ------------------------
          nuclear repulsion energy  :   269.396539097    
          ------------------------


         -----------------
         -S,T+V- integrals
         -----------------

 1e-integrals will be neglected if expon. factor < 0.954846E-14
 
   Difference densities algorithm switched on.
   The maximal number of linear combinations of
   difference densities is                    20 .

 DIIS switched on: error vector is FDS-SDF
 Max. Iterations for DIIS is     :   5
 DIIS matrix (see manual) 
    Scaling factor of diagonals  :  1.200
    threshold for scaling factor :  0.000

 scf convergence criterion : increment of total energy < .1000000D-08
                  and increment of one-electron energy < .1000000D-05

  MOs are in ASCII format !


 reading orbital data $scfmo  from file mos
 orbital characterization : scfconv=9

 DSCF restart information will be dumped onto file mos

 
                                              current damping :  0.700
 ITERATION  ENERGY          1e-ENERGY        2e-ENERGY     RMS[dD(SAO)]   TOL
   1  -322.77864186386    -973.07597750     380.90079653    0.000D+00 0.952D-13
          max. resid. norm for Fia-block=  1.033D-01 for orbital      1a         
          max. resid. fock norm         =  1.794D-01 for orbital    305a         
          Delta Eig. =    28.7350391323 eV 
 
                                              current damping :  0.650
 ITERATION  ENERGY          1e-ENERGY        2e-ENERGY     RMS[dD(SAO)]   TOL
   2  -322.82819549495    -972.23268801     380.00795342    0.139D-02 0.607D-13
          Norm of current diis error: 0.45305    
          max. resid. norm for Fia-block=  4.921D-02 for orbital      1a         
          max. resid. fock norm         =  7.096D-02 for orbital    305a         
          Delta Eig. =    12.5293655795 eV 
 
                                              current damping :  0.600
 ITERATION  ENERGY          1e-ENERGY        2e-ENERGY     RMS[dD(SAO)]   TOL
   3  -322.83812033945    -972.31658091     380.08192148    0.665D-03 0.461D-13
          Norm of current diis error: 0.19928    
          max. resid. norm for Fia-block=  2.035D-02 for orbital      1a         
          max. resid. fock norm         =  2.885D-02 for orbital    305a         
          Delta Eig. =     5.0559894348 eV 
 
                                              current damping :  0.650
 ITERATION  ENERGY          1e-ENERGY        2e-ENERGY     RMS[dD(SAO)]   TOL
   4  -322.84016494339    -972.25237936     380.01567532    0.301D-03 0.401D-13
          Norm of current diis error: 0.80997E-01
          max. resid. norm for Fia-block=  7.705D-03 for orbital      1a         
          max. resid. fock norm         =  1.055D-02 for orbital    305a         
          Delta Eig. =     1.8507502281 eV 
 
                                              current damping :  0.500
 ITERATION  ENERGY          1e-ENERGY        2e-ENERGY     RMS[dD(SAO)]   TOL
   5  -322.84051174699    -972.23619388     379.99914303    0.119D-03 0.370D-13
          Norm of current diis error: 0.34873E-01
          max. resid. norm for Fia-block=  2.978D-03 for orbital      1a         
          max. resid. fock norm         =  4.200D-03 for orbital    305a         
 mo-orthogonalization: Cholesky decomposition
          Delta Eig. =     0.7983554587 eV 
 
                                              current damping :  0.350
 ITERATION  ENERGY          1e-ENERGY        2e-ENERGY     RMS[dD(SAO)]   TOL
   6  -322.84058598717    -972.23028613     379.99316104    0.567D-04 0.345D-13
          Norm of current diis error: 0.13851E-01
          max. resid. norm for Fia-block=  1.248D-03 for orbital     26a         
          max. resid. fock norm         =  1.371D-03 for orbital    305a         
          Delta Eig. =     0.2966030837 eV 
 
                                              current damping :  0.200
 ITERATION  ENERGY          1e-ENERGY        2e-ENERGY     RMS[dD(SAO)]   TOL
   7  -322.84060137776    -972.22718781     379.99004733    0.247D-04 0.321D-13
          Norm of current diis error: 0.56853E-02
          max. resid. norm for Fia-block=  6.140D-04 for orbital     26a         
          max. resid. fock norm         =  6.140D-04 for orbital     26a         
          Delta Eig. =     0.0863354459 eV 
 
                                              current damping :  0.050
 ITERATION  ENERGY          1e-ENERGY        2e-ENERGY     RMS[dD(SAO)]   TOL
   8  -322.84060542771    -972.22692351     379.98977898    0.111D-04 0.297D-13
          Norm of current diis error: 0.28760E-02
          max. resid. norm for Fia-block=  4.129D-04 for orbital     26a         
          max. resid. fock norm         =  4.129D-04 for orbital     26a         
          Delta Eig. =     0.0167529594 eV 
 
                                              current damping :  0.050
 ITERATION  ENERGY          1e-ENERGY        2e-ENERGY     RMS[dD(SAO)]   TOL
   9  -322.84060698414    -972.22666918     379.98952310    0.682D-05 0.270D-13
          Norm of current diis error: 0.14592E-02
          max. resid. norm for Fia-block=  2.742D-04 for orbital     25a         
          max. resid. fock norm         =  2.786D-04 for orbital     25a         
          Delta Eig. =     0.0035067420 eV 
 
                                              current damping :  0.100
 ITERATION  ENERGY          1e-ENERGY        2e-ENERGY     RMS[dD(SAO)]   TOL
  10  -322.84060747119    -972.22708323     379.98993666    0.448D-05 0.248D-13
          Norm of current diis error: 0.63820E-03
          max. resid. norm for Fia-block=  1.198D-04 for orbital     26a         
          max. resid. fock norm         =  1.198D-04 for orbital     26a         
 mo-orthogonalization: Cholesky decomposition
          Delta Eig. =     0.0054067180 eV 
 
                                              current damping :  0.150
 ITERATION  ENERGY          1e-ENERGY        2e-ENERGY     RMS[dD(SAO)]   TOL
  11  -322.84060754431    -972.22689068     379.98974404    0.192D-05 0.237D-13
          Norm of current diis error: 0.27511E-03
          max. resid. norm for Fia-block=  5.132D-05 for orbital     25a         
          max. resid. fock norm         =  5.559D-05 for orbital     25a         
          Delta Eig. =     0.0017903290 eV 
 
                                              current damping :  0.200
 ITERATION  ENERGY          1e-ENERGY        2e-ENERGY     RMS[dD(SAO)]   TOL
  12  -322.84060755492    -972.22703350     379.98988684    0.637D-06 0.231D-13
          Norm of current diis error: 0.94050E-04
          max. resid. norm for Fia-block=  1.522D-05 for orbital     25a         
          max. resid. fock norm         =  1.527D-05 for orbital     25a         
          Delta Eig. =     0.0004524560 eV 
 
                                              current damping :  0.250
 ITERATION  ENERGY          1e-ENERGY        2e-ENERGY     RMS[dD(SAO)]   TOL
  13  -322.84060755629    -972.22702741     379.98988075    0.273D-06 0.228D-13
          Norm of current diis error: 0.33641E-04
          max. resid. norm for Fia-block=  6.234D-06 for orbital     25a         
          max. resid. fock norm         =  6.276D-06 for orbital     25a         
          Delta Eig. =     0.0000625178 eV 

 DENSITY CONVERGED !

 
                                              current damping :  0.300
 ITERATION  ENERGY          1e-ENERGY        2e-ENERGY     RMS[dD(SAO)]   TOL
  14  -322.84060755648    -972.22702985     379.98988320    0.985D-07 0.272D-13
          Norm of current diis error: 0.14465E-04
          max. resid. norm for Fia-block=  2.570D-06 for orbital     24a         
          max. resid. fock norm         =  2.740D-06 for orbital     24a         
          Delta Eig. =     0.0000262779 eV 

 ENERGY & DENSITY CONVERGED !

 
                                              current damping :  0.150
 ITERATION  ENERGY          1e-ENERGY        2e-ENERGY     RMS[dD(SAO)]   TOL
  15  -322.84060755650    -972.22703093     379.98988428    0.396D-07 0.273D-13
          max. resid. norm for Fia-block=  6.155D-07 for orbital     24a         
          max. resid. fock norm         =  6.809D-07 for orbital     24a         

 convergence criteria satisfied after    15 iterations


                  ------------------------------------------ 
                 |  total energy      =   -322.84060755650  |
                  ------------------------------------------ 
                 :  kinetic energy    =    322.38772055233  :
                 :  potential energy  =   -645.22832810884  :
                 :  virial theorem    =      1.99859718080  :
                 :  wavefunction norm =      1.00000000000  :
                  .......................................... 


 orbitals $scfmo  will be written to file mos

    irrep                 22a         23a         24a         25a         26a   
 eigenvalues H         -0.53157    -0.46285    -0.43524    -0.39715    -0.35887
            eV         -14.4648    -12.5948    -11.8436    -10.8072     -9.7653
 occupation              2.0000      2.0000      2.0000      2.0000      2.0000 

    irrep                 27a         28a         29a         30a         31a   
 eigenvalues H          0.09286     0.11195     0.13564     0.15921     0.16221
            eV           2.5269      3.0464      3.6909      4.3324      4.4141
 
 
 
 
 ==============================================================================
                           electrostatic moments
 ==============================================================================

 reference point for electrostatic moments:    0.00000   0.00000   0.00000

 
              nuc           elec       ->  total
 ------------------------------------------------------------------------------
                          charge      
 ------------------------------------------------------------------------------
          52.000000     -52.000000      -0.000000
 
 ------------------------------------------------------------------------------
                       dipole moment  
 ------------------------------------------------------------------------------
   x     290.699458    -288.955564       1.743894
   y       2.267121      -1.663580       0.603542
   z      -0.002401       0.002942       0.000542
 
   | dipole moment | =     1.8454 a.u. =     4.6905 debye 
 
 ------------------------------------------------------------------------------
                     quadrupole moment
 ------------------------------------------------------------------------------
  xx    2329.787475   -2345.529058     -15.741583
  yy       3.105949     -35.859771     -32.753822
  zz     180.510101    -207.130528     -26.620427
  xy       7.203334      -8.939659      -1.736325
  xz       0.045973      -0.047288      -0.001314
  yz       0.006809      -0.006358       0.000452
 
     1/3  trace=     -25.038611
     anisotropy=      15.222895
 
 ==============================================================================
 


    ------------------------------------------------------------------------
         total  cpu-time :  9 minutes and 13 seconds
         total wall-time :  35.67 seconds
    ------------------------------------------------------------------------

   ****  dscf : all done  ****


    2019-04-02 16:07:07.325 

