STARTING ridft ON 8 PROCESSORS!
RUNNING PROGRAM /beegfs/modfac/apps/TURBOMOLE/7.2.1-official/bin/em64t-unknown-linux-gnu_mpi/ridft_mpi.
PLEASE WAIT UNTIL ridft HAS FINISHED.
Look for the output in slave1.output.
MACHINEFILE is ./hostlist
 c-6-30.local ( 1 ) 
 c-6-30.local ( 2 ) 
 c-6-30.local ( 3 ) 
 c-6-30.local ( 4 ) 
 c-6-30.local ( 5 ) 
 c-6-30.local ( 6 ) 
 c-6-30.local ( 7 ) 
 this is node-proc. number 0 running on node c-6-30.local
 the total number of node-proc. spawned is   8
 GA version: using    8 (total) on    1 nhosts.
 operating system is UNIX !

 ridft (c-6-30.local) : TURBOMOLE V7.2 ( 21471 ) 7 Nov 2017 at 16:15:16
 Copyright (C) 2017 TURBOMOLE GmbH, Karlsruhe


    2018-04-30 17:22:03.789 



                                  r i d f t

                        DFT program with RI approximation 
                                for coulomb part 




                                                 
                                 References:     
                                                 
          TURBOMOLE:                             
              R. Ahlrichs, M. Baer, M. Haeser, H. Horn, and
              C. Koelmel
              Electronic structure calculations on workstation
              computers: the program system TURBOMOLE
              Chem. Phys. Lett. 162: 165 (1989)
          Density Functional:                              
              O. Treutler and R. Ahlrichs                      
              Efficient Molecular Numerical Integration Schemes
              J. Chem. Phys. 102: 346 (1995)                   
          Parallel Version:                                
              Performance of parallel TURBOMOLE for Density    
              Functional Calculations                          
              M. v. Arnim and R. Ahlrichs                      
              J. Comp. Chem. 19: 1746 (1998)                   
          RI-J Method:                                     
              Auxiliary Basis Sets to approximate Coulomb      
              Potentials                                       
              Chem. Phys. Lett. 240: 283 (1995)                
              K. Eichkorn, O. Treutler, H. Oehm, M. Haeser     
              and R. Ahlrichs                                  
              Chem. Phys. Lett. 242: 652 (1995)                
                                                           
              Auxiliary Basis Sets for Main Row Atoms and their
              Use to approximate Coulomb Potentials            
              K. Eichkorn, F. Weigend, O. Treutler and         
              R. Ahlrichs                                      
              Theo. Chem. Acc. 97: 119 (1997)                   
                                                           
              Accurate Coulomb-fitting basis sets for H to Rn 
              F. Weigend                                        
              Phys. Chem. Chem. Phys. 8: 1057 (2006)            
                                                           
          Multipole accelerated RI-J (MARI-J):             
              Fast evaluation of the Coulomb potential for     
              electron densities using multipole accelerated   
              resolution of identity approximation             
              M. Sierka, A. Hogekamp and R. Ahlrichs           
              J. Chem. Phys. 118: 9136 (2003)                  
          RI-JK Method:                                     
              A fully direct RI-HF algorithm: Implementation,
              optimised auxiliary basis sets, demonstration of
              accuracy and efficiency                         
              F. Weigend                                      
              Phys. Chem. Chem. Phys. 4: 4285 (2002)           
          Two-component HF and DFT with spin-orbit coupling:  
              Self-consistent treatment of spin-orbit         
              interactions with efficient Hartree-Fock and    
              density functional methods                      
              M. K. Armbruster, F. Weigend, C. van Wüllen and 
              W. Klopper                                      
              Phys. Chem. Chem. Phys. 10: 1748 (2008)         
          Relativistic all-electron 2c calculations           
              An efficient implementation of two-component    
              relativistic exact-decoupling methods for large 
              molecules                                       
              D. Peng, N. Middendorf, F. Weigend, M. Reiher   
              J. Chem. Phys. 138, 184105 (2013)               
                                         


 ********** GlobalArray OPTION SETTINGS : **********
 *****************************************************


              +--------------------------------------------------+
              |      general information about current run       |
              +--------------------------------------------------+

 

 SCF run will be profiled !


 DENSITY CONVERGENCE CHECK SWITCHED ON !
 SCF CONVERGENCE IF RMS(delta[D]) <     0.1000000000E-06

 PBE functional
 exchange:    LDA + PBE
 correlation: LDA (PW) + PBE
 A DFT calculation using the RI-J approximation will be carried out.
 Allocatable memory for RI due to $ricore (MB):                 90000


              +--------------------------------------------------+
              | Atomic coordinate, charge and isotop information |
              +--------------------------------------------------+

                    atomic coordinates            atom    charge  isotop
          4.43447124   -4.75586619   -6.29164637    c      6.000     0
          7.00194567   -5.03917058   -2.60788986    c      6.000     0
          6.16291965   -2.30038691    3.63738772    c      6.000     0
          7.58664886   -4.31129364    0.03188123    c      6.000     0
          2.22134772   -3.71535362   -7.65452807    c      6.000     0
         -1.51221397   -1.47454553   -7.30870014    c      6.000     0
          7.87685627   -7.32744330   -6.14279865    c      6.000     0
          4.04133166   -0.99267910    4.96856027    c      6.000     0
          4.01712438    1.66743662    5.14225613    c      6.000     0
          2.11050238   -2.44607113    6.08769397    c      6.000     0
         -3.40200777   -0.24178057   -5.61008615    c      6.000     0
         -3.42550429    2.41120288   -5.34381635    c      6.000     0
         -5.16149597   -1.75485674   -4.30181595    c      6.000     0
          2.02010760    2.90376840    6.53734104    c      6.000     0
         -7.03953249   -0.56453767   -2.71816461    c      6.000     0
          0.11997473   -1.19405182    7.47528860    c      6.000     0
         -5.31380528    3.58327486   -3.75597932    c      6.000     0
          4.95128306   -3.94530879   -3.84149648    c      6.000     0
         -7.06952338    2.06730125   -2.49009496    c      6.000     0
          0.12948541    1.44175434    7.66541329    c      6.000     0
         -1.87348568   -1.53780479   -9.93174225    c      6.000     0
          8.47284847   -2.71564457    4.86493304    c      6.000     0
         -5.15228966   -4.44737496   -4.46695719    c      6.000     0
          5.89314300    3.20613788    3.96210842    c      6.000     0
         -1.61241426    4.00039580   -6.55620576    c      6.000     0
          2.04075508   -5.13661204    5.89961484    c      6.000     0
          9.92784765   -4.85033346    1.13285113    c      6.000     0
          1.97879378   -3.91655323  -10.27831233    c      6.000     0
         -8.80084760   -2.11524890   -1.39633324    c      6.000     0
          2.03380215    5.59326457    6.72718372    c      6.000     0
         -5.32303902    6.26776589   -3.50521529    c      6.000     0
         -1.81626295   -2.68861301    8.60261294    c      6.000     0
         10.36924276   -4.02346229    3.58999282    c      6.000     0
         -0.10547394   -2.79443651  -11.42497173    c      6.000     0
         -6.87931806   -5.87297900   -3.15829367    c      6.000     0
          5.82796131    5.78864728    4.17511408    c      6.000     0
         -1.67506369    6.57339985   -6.24964607    c      6.000     0
         -8.72669179   -4.69842070   -1.60620726    c      6.000     0
          0.13869410   -6.50573659    7.00959381    c      6.000     0
          3.88847166    6.99744946    5.58911724    c      6.000     0
         -1.81216122   -5.27162160    8.37839337    c      6.000     0
         -3.56103040    7.72589185   -4.71973916    c      6.000     0
          0.49538116   -2.54055638   -6.19706663    n      7.000     0
          5.73150656   -3.08017087    1.26919686    n      7.000     0
          8.50479357   -6.74304039   -3.76450206    n      7.000     0
          5.91662184   -6.45461461   -7.48078405    n      7.000     0
         -3.72948226   -5.36542827   -5.62196921    h      1.000     0
          3.84724839   -2.46807414   -2.96161964    h      1.000     0
         -0.15038170    3.13384540   -7.70379565    h      1.000     0
          7.36473427    2.29789997    2.85992123    h      1.000     0
          3.50519198   -6.09331107    4.83083608    h      1.000     0
         -6.81766489   -7.92012045   -3.28061067    h      1.000     0
         -8.46967394    2.95451768   -1.27628905    h      1.000     0
         -1.36673421    2.37942536    8.72022708    h      1.000     0
         11.33127906   -5.88043176    0.05195247    h      1.000     0
          3.41087115   -4.92102678  -11.34580140    h      1.000     0
         -3.52057937   -0.63682769  -10.75845800    h      1.000     0
        -10.06607550   -5.86072166   -0.57392629    h      1.000     0
          8.74619835   -2.03971280    6.78240421    h      1.000     0
          0.53173501    6.50490696    7.79163450    h      1.000     0
        -10.19852438   -1.19899458   -0.20164976    h      1.000     0
         -3.30911837   -1.72987750    9.63883941    h      1.000     0
         -6.76246872    7.12853759   -2.31885791    h      1.000     0
          9.09476167   -8.68312600   -7.09613874    h      1.000     0
          7.25958387    6.93019105    3.24807297    h      1.000     0
          0.09983864   -8.54775175    6.81596442    h      1.000     0
         -0.26602911    7.74926600   -7.16854926    h      1.000     0
          3.87673097    9.04442144    5.74526535    h      1.000     0
         -3.30831054   -6.38682444    9.23211727    h      1.000     0
         -3.58419253    9.76784625   -4.50953886    h      1.000     0
         -0.35256866   -2.89430347  -13.46047889    h      1.000     0
         12.16994788   -4.39082227    4.50472675    h      1.000     0
         -0.03535146    4.29107920    0.24982253    c      6.000     0
         -0.75738963   -0.11048164    0.42116808    c      6.000     0
         -2.19939078    3.86477743    1.76242829    c      6.000     0
         -2.65217891    1.10656338    1.87986452    c      6.000     0
         -3.30209698    5.99522864    2.86863730    c      6.000     0
         -0.23569882    8.70662256    0.92669905    c      6.000     0
         -2.50182640   -4.09486110    1.45392160    c      6.000     0
         -2.31383298    8.41050675    2.49430196    c      6.000     0
          0.96296462    1.81300021   -0.67826082    c      6.000     0
         -0.65587480   -2.71402037    0.18598611    c      6.000     0
          0.95771161    6.65315783   -0.21994540    c      6.000     0
         -4.38208902   -2.95815994    2.91139948    c      6.000     0
         -4.46480965   -0.33478538    3.13359756    c      6.000     0
         -5.54853087    5.85575495    4.50943713    n      7.000     0
          0.75818111   11.27147990    0.50662751    n      7.000     0
         -2.46689288   -6.87084789    1.25422892    n      7.000     0
         -7.27881521    4.43174722    3.85754329    o      8.000     0
         -5.56674865    7.21105183    6.40383546    o      8.000     0
          2.62925103   11.47775583   -0.87168545    o      8.000     0
         -0.76880662   -7.84789201   -0.00946968    o      8.000     0
         -0.33539161   13.04547697    1.55802431    o      8.000     0
         -4.14386807   -8.05678335    2.37070255    o      8.000     0
          2.80988501    1.53021009   -2.02642837    o      8.000     0
         -5.94167942    0.53371505    4.24582014    h      1.000     0
         -3.16269627   10.03483304    3.40371934    h      1.000     0
         -5.75831993   -4.14366486    3.84880881    h      1.000     0
          2.60460665    6.90346163   -1.40880503    h      1.000     0
          0.78167161   -3.64955053   -0.91979858    h      1.000     0
 
       center of nuclear mass  :   -0.00022047    0.16828055    0.01438965
       center of nuclear charge:   -0.00261250    0.15506363    0.01521903

              +--------------------------------------------------+
              |               basis set information              |
              +--------------------------------------------------+

              we will work with the 1s 3p 5d 7f 9g ... basis set
              ...i.e. with spherical basis functions...

   type   atoms  prim   cont   basis
   ---------------------------------------------------------------------------
    c       55     50     30   cc-pVTZ   [4s3p2d1f|18s5p2d1f]
    n        7     50     30   cc-pVTZ   [4s3p2d1f|18s5p2d1f]
    h       31     16     14   cc-pVTZ   [3s2p1d|5s2p1d]
    o        7     50     30   cc-pVTZ   [4s3p2d1f|18s5p2d1f]
   ---------------------------------------------------------------------------
   total:  100   3946   2504
   ---------------------------------------------------------------------------

   total number of primitive shells          :   86
   total number of contracted shells         :  876
   total number of cartesian basis functions : 2880
   total number of SCF-basis functions       : 2504


 integral neglect threshold       :  0.12E-13
 integral storage threshold THIZE :  0.10E-04
 integral storage threshold THIME :         5

 RI-J AUXILIARY BASIS SET information:

              we will work with the 1s 3p 5d 7f 9g ... basis set
              ...i.e. with spherical basis functions...

   type   atoms  prim   cont   basis
   ---------------------------------------------------------------------------
    c       55     70     49   cc-pVTZ   [6s4p3d1f1g|12s5p4d2f1g]
    n        7     70     49   cc-pVTZ   [6s4p3d1f1g|12s5p4d2f1g]
    h       31     16     11   cc-pVTZ   [3s1p1d|5s2p1d]
    o        7     70     49   cc-pVTZ   [6s4p3d1f1g|12s5p4d2f1g]
   ---------------------------------------------------------------------------
   total:  100   5326   3722
   ---------------------------------------------------------------------------

   total number of primitive shells          :   80
   total number of contracted shells         : 1190
   total number of cartesian basis functions : 4581
   total number of SCF-basis functions       : 3722


 symmetry group of the molecule :   c1 

 the group has the following generators :
   c1(z)

    1 symmetry operations found

 there are 1 real representations :   a   

 maximum number of shells which are related by symmetry :  1


    mo occupation :
   irrep   mo's   occupied
    a     2504      233
 
 number of basis functions   :                   2504
 number of occupied orbitals :                    233
 
  
           ------------------
           density functional
           ------------------
 PBE functional
 exchange:    LDA + PBE
 correlation: LDA (PW) + PBE

 iterations will be done with small grid
  
 spherical integration : Lebedev's spherical grid
 spherical gridsize    :                     5
    i.e. gridpoints    :                   590
 value for diffuse not defined
 radial integration    : Chebyshev 2nd kind (scaling 3)
 radial gridsize       :                     8
 integration cells     :                   100
 partition function    : becke
 partition sharpness   :                     3
  

 biggest AO integral is expected to be     4.866064444
  
           ------------------------
               RI-J - INFORMATION
           ------------------------
 Memory core needed for (P|Q) and Cholesky     53 MByte on GA
 Memory core minimum needed except           8 MByte 
  
 ****************************************
 Memory allocated for RI-J 8 MByte
 plus additional 53 MByte (pqmatrix)  (GA)
 ****************************************
                                            
allocating par_xzuhag( 9381.35 MB)
