           Doing BLAS/Lapack in the master proc. with  8 CPUs.
           SMPCPUS    set: Shared-memory Parallelization with   8 CPUs.

           SMP Parallelization Reference:
           C. van Wullen, J. Comput. Chem. 32 (2011) 1195--1201
 operating system is UNIX !

 ridft (c-18-264.gp.local) : TURBOMOLE V7.2 ( 21454 ) 4 Oct 2017 at 12:48:15
 Copyright (C) 2017 TURBOMOLE GmbH, Karlsruhe


    2018-04-28 20:54:19.671 



                                  r i d f t

                        DFT program with RI approximation 
                                for coulomb part 




                                                 
                                 References:     
                                                 
          TURBOMOLE:                             
              R. Ahlrichs, M. Baer, M. Haeser, H. Horn, and
              C. Koelmel
              Electronic structure calculations on workstation
              computers: the program system TURBOMOLE
              Chem. Phys. Lett. 162: 165 (1989)
          Density Functional:                              
              O. Treutler and R. Ahlrichs                      
              Efficient Molecular Numerical Integration Schemes
              J. Chem. Phys. 102: 346 (1995)                   
          Parallel Version:                                
              Performance of parallel TURBOMOLE for Density    
              Functional Calculations                          
              M. v. Arnim and R. Ahlrichs                      
              J. Comp. Chem. 19: 1746 (1998)                   
          RI-J Method:                                     
              Auxiliary Basis Sets to approximate Coulomb      
              Potentials                                       
              Chem. Phys. Lett. 240: 283 (1995)                
              K. Eichkorn, O. Treutler, H. Oehm, M. Haeser     
              and R. Ahlrichs                                  
              Chem. Phys. Lett. 242: 652 (1995)                
                                                           
              Auxiliary Basis Sets for Main Row Atoms and their
              Use to approximate Coulomb Potentials            
              K. Eichkorn, F. Weigend, O. Treutler and         
              R. Ahlrichs                                      
              Theo. Chem. Acc. 97: 119 (1997)                   
                                                           
              Accurate Coulomb-fitting basis sets for H to Rn 
              F. Weigend                                        
              Phys. Chem. Chem. Phys. 8: 1057 (2006)            
                                                           
          Multipole accelerated RI-J (MARI-J):             
              Fast evaluation of the Coulomb potential for     
              electron densities using multipole accelerated   
              resolution of identity approximation             
              M. Sierka, A. Hogekamp and R. Ahlrichs           
              J. Chem. Phys. 118: 9136 (2003)                  
          RI-JK Method:                                     
              A fully direct RI-HF algorithm: Implementation,
              optimised auxiliary basis sets, demonstration of
              accuracy and efficiency                         
              F. Weigend                                      
              Phys. Chem. Chem. Phys. 4: 4285 (2002)           
          Two-component HF and DFT with spin-orbit coupling:  
              Self-consistent treatment of spin-orbit         
              interactions with efficient Hartree-Fock and    
              density functional methods                      
              M. K. Armbruster, F. Weigend, C. van Wüllen and 
              W. Klopper                                      
              Phys. Chem. Chem. Phys. 10: 1748 (2008)         
          Relativistic all-electron 2c calculations           
              An efficient implementation of two-component    
              relativistic exact-decoupling methods for large 
              molecules                                       
              D. Peng, N. Middendorf, F. Weigend, M. Reiher   
              J. Chem. Phys. 138, 184105 (2013)               
                                         




              +--------------------------------------------------+
              |      general information about current run       |
              +--------------------------------------------------+

 

 DENSITY CONVERGENCE CHECK SWITCHED ON !
 SCF CONVERGENCE IF RMS(delta[D]) <     0.1000000000E-06

 PBE functional
 exchange:    LDA + PBE
 correlation: LDA (PW) + PBE
 A DFT calculation using the RI-J approximation will be carried out.
 Allocatable memory for RI due to $ricore (MB):                  5000


              +--------------------------------------------------+
              | Atomic coordinate, charge and isotop information |
              +--------------------------------------------------+

                    atomic coordinates            atom    charge  isotop
         -1.07659254    1.53894091    0.19104705    n      7.000     0
          0.24732308    1.06091238   -1.11043058    h      1.000     0
         -2.76136637    0.99572467   -0.52993583    h      1.000     0
         -0.57733848    0.12417447    2.51105246    c      6.000     0
         -1.99772300    0.59388455    3.92299473    h      1.000     0
         -0.54428559   -1.93185282    2.29572672    h      1.000     0
          1.24808422    0.69638133    3.26968398    h      1.000     0
          4.26490694    5.08355208   -0.28218770    c      0.000     0
          4.50040171    5.86056349   -2.17010788    h      0.000     0
          5.22218810    6.29485245    1.07422847    h      0.000     0
          2.24968077    5.03341854    0.13056898    h      0.000     0
          5.23243101    2.40430275   -0.27785261    c      0.000     0
          4.36319500    0.76829801   -1.67469019    o      0.000     0
          7.09661366    1.88834639    1.40840805    n      0.000     0
          7.85205251    3.31496258    2.40118088    h      0.000     0
          8.20861419   -0.60531835    1.55486101    c      0.000     0
          6.71917625   -2.00622930    1.37907756    h      0.000     0
          9.57159765   -0.93034250    0.04583080    h      0.000     0
          9.14337387   -0.82427749    3.36888382    h      0.000     0
 
       center of nuclear mass  :    3.85629016    1.56268761    0.49838698
       center of nuclear charge:   -0.82267480    0.71848241    1.34731573

              +--------------------------------------------------+
              |               basis set information              |
              +--------------------------------------------------+

              we will work with the 1s 3p 5d 7f 9g ... basis set
              ...i.e. with spherical basis functions...

   type   atoms  prim   cont   basis
   ---------------------------------------------------------------------------
    n        2     50     30   cc-pVTZ   [4s3p2d1f|18s5p2d1f]
    h       12     16     14   cc-pVTZ   [3s2p1d|5s2p1d]
    c        4     50     30   cc-pVTZ   [4s3p2d1f|18s5p2d1f]
    o        1     50     30   cc-pVTZ   [4s3p2d1f|18s5p2d1f]
   ---------------------------------------------------------------------------
   total:   19    542    378
   ---------------------------------------------------------------------------

   total number of primitive shells          :   86
   total number of contracted shells         :  142
   total number of cartesian basis functions :  425
   total number of SCF-basis functions       :  378


 integral neglect threshold       :  0.78E-13
 integral storage threshold THIZE :  0.10E-04
 integral storage threshold THIME :         5

 RI-J AUXILIARY BASIS SET information:

              we will work with the 1s 3p 5d 7f 9g ... basis set
              ...i.e. with spherical basis functions...

   type   atoms  prim   cont   basis
   ---------------------------------------------------------------------------
    n        2     70     49   cc-pVTZ   [6s4p3d1f1g|12s5p4d2f1g]
    h       12     16     11   cc-pVTZ   [3s1p1d|5s2p1d]
    c        4     70     49   cc-pVTZ   [6s4p3d1f1g|12s5p4d2f1g]
    o        1     70     49   cc-pVTZ   [6s4p3d1f1g|12s5p4d2f1g]
   ---------------------------------------------------------------------------
   total:   19    682    475
   ---------------------------------------------------------------------------

   total number of primitive shells          :   80
   total number of contracted shells         :  165
   total number of cartesian basis functions :  571
   total number of SCF-basis functions       :  475


 symmetry group of the molecule :   c1 

 the group has the following generators :
   c1(z)

    1 symmetry operations found

 there are 1 real representations :   a   

 maximum number of shells which are related by symmetry :  1


    mo occupation :
   irrep   mo's   occupied
    a      378        9
 
 number of basis functions   :                    378
 number of occupied orbitals :                      9
 
  
           ------------------
           density functional
           ------------------
 Dummy atoms with grid-point found.
 DFT quadrature threshold dgrenze tightened by factor 1/10.

 PBE functional
 exchange:    LDA + PBE
 correlation: LDA (PW) + PBE
 Dummy atoms with grid-point found.
 DFT quadrature threshold dgrenze tightened by factor 1/10.

 Dummy atoms with grid-point found.
 DFT quadrature threshold dgrenze tightened by factor 1/10.


 iterations will be done with small grid
  
 spherical integration : Lebedev's spherical grid
 spherical gridsize    :                     5
    i.e. gridpoints    :                   590
 value for diffuse not defined
 radial integration    : Chebyshev 2nd kind (scaling 3)
 radial gridsize       :                     8
 integration cells     :                    19
 partition function    : becke
 partition sharpness   :                     3
  
 found dummy atom(s) with basis: included in dft

 biggest AO integral is expected to be     4.866064444
  
           ------------------------
               RI-J - INFORMATION
           ------------------------
 Contributions to RI integral batches: 
  neglected integral batches:                  1460
  direct contribution:                            0
  memory contribution:                  8693
 Memory core needed for (P|Q) and Cholesky      2 MByte
 Memory core minimum needed except of (P|Q)     1 MByte
 Total minimum memory core needed (sum)         3 MByte
  
 ****************************************
 Memory allocated for RI-J   329 MByte
 ****************************************
                                            

          ------------------------
          nuclear repulsion energy  :   42.0932860640    
          ------------------------


         -----------------
         -S,T+V- integrals
         -----------------

 1e-integrals will be neglected if expon. factor < 0.786344E-14
 Difference densities >>NOT<< switched on in parallel ridft!

 DIIS switched on: error vector is FDS-SDF
 Max. Iterations for DIIS is     :   4
 DIIS matrix (see manual) 
    Scaling factor of diagonals  :  1.200
    threshold for scaling factor :  0.000

 scf convergence criterion : increment of total energy < .1000000D-08
                  and increment of one-electron energy < .1000000D-05

  MOs are in ASCII format !


 automatic virtual orbital shift switched on 
      shift if e(lumo)-e(homo) < 0.10000000    


 reading orbital data $scfmo  from file mos
 orbital characterization : expanded
 mo provided and orthogonalized by Cholesky decomposition

 DSCF restart information will be dumped onto file mos


 Starting SCF iterations

          Overall gridpoints after grid construction =        106468

 ITERATION  ENERGY          1e-ENERGY        2e-ENERGY     RMS[dD(SAO)]   TOL
   1  -95.386259767251    -210.16387978     72.684333948    0.000D+00 0.784D-13
                            Exc = -13.8264614025     Coul =  86.5107953501    
                              N = 18.000158438    
                            current damping = 0.700
 
          max. resid. norm for Fia-block=  2.579D-01 for orbital      1a         
          max. resid. fock norm         =  1.596D+01 for orbital    374a         

 ITERATION  ENERGY          1e-ENERGY        2e-ENERGY     RMS[dD(SAO)]   TOL
   2  -95.683746210675    -211.11105636     73.334024080    0.130D-02 0.784D-13
                            Exc = -13.9392284307     Coul =  87.2732525111    
                              N = 18.000136041    
                            current damping = 0.650
 
          Norm of current diis error:  1.1894    
          max. resid. norm for Fia-block=  1.196D-01 for orbital      1a         
          max. resid. fock norm         =  1.626D-01 for orbital    372a         

 ITERATION  ENERGY          1e-ENERGY        2e-ENERGY     RMS[dD(SAO)]   TOL
   3  -95.742403314933    -211.54329140     73.707602025    0.896D-03 0.784D-13
                            Exc = -14.0238287083     Coul =  87.7314307332    
                              N = 18.000119069    
                            current damping = 0.500
 
          Norm of current diis error: 0.56395    
          max. resid. norm for Fia-block=  4.927D-02 for orbital      1a         
          max. resid. fock norm         =  5.234D-02 for orbital      1a         

 ITERATION  ENERGY          1e-ENERGY        2e-ENERGY     RMS[dD(SAO)]   TOL
   4  -95.760671218014    -211.59386908     73.739911800    0.750D-03 0.784D-13
                            Exc = -14.0474572387     Coul =  87.7873690391    
                              N = 18.000109809    
                            current damping = 0.350
 
          Norm of current diis error: 0.20582    
          max. resid. norm for Fia-block=  1.829D-02 for orbital      4a         
          max. resid. fock norm         =  2.289D-02 for orbital      4a         

 ITERATION  ENERGY          1e-ENERGY        2e-ENERGY     RMS[dD(SAO)]   TOL
   5  -95.763446414228    -211.81565727     73.958924794    0.409D-03 0.784D-13
                            Exc = -14.0818192240     Coul =  88.0407440183    
                              N = 18.000104519    
                            current damping = 0.200
 
          Norm of current diis error: 0.82928E-01
          max. resid. norm for Fia-block=  8.781D-03 for orbital      9a         
          max. resid. fock norm         =  8.842D-03 for orbital      9a         
          mo-orthogonalization: Cholesky decomposition

 ITERATION  ENERGY          1e-ENERGY        2e-ENERGY     RMS[dD(SAO)]   TOL
   6  -95.763809508795    -211.66935460     73.812259032    0.254D-03 0.784D-13
                            Exc = -14.0683728664     Coul =  87.8806318985    
                              N = 18.000103976    
                            current damping = 0.250
 
          Norm of current diis error: 0.51597E-01
          max. resid. norm for Fia-block=  2.173D-03 for orbital      5a         
          max. resid. fock norm         =  2.734D-03 for orbital    168a         

 ITERATION  ENERGY          1e-ENERGY        2e-ENERGY     RMS[dD(SAO)]   TOL
   7  -95.763900455026    -211.74371312     73.886526598    0.287D-04 0.784D-13
                            Exc = -14.0767323830     Coul =  87.9632589805    
                              N = 18.000103380    
                            current damping = 0.300
 
          Norm of current diis error: 0.63630E-02
          max. resid. norm for Fia-block=  4.318D-04 for orbital      6a         
          max. resid. fock norm         =  6.362D-04 for orbital      4a         

 ITERATION  ENERGY          1e-ENERGY        2e-ENERGY     RMS[dD(SAO)]   TOL
   8  -95.763901402491    -211.73981509     73.882627621    0.748D-05 0.784D-13
                            Exc = -14.0765736054     Coul =  87.9592012260    
                              N = 18.000103355    
                            current damping = 0.350
 
          Norm of current diis error: 0.37023E-02
          max. resid. norm for Fia-block=  1.682D-04 for orbital      7a         
          max. resid. fock norm         =  1.826D-04 for orbital      4a         

 ITERATION  ENERGY          1e-ENERGY        2e-ENERGY     RMS[dD(SAO)]   TOL
   9  -95.763901900887    -211.74434991     73.887161940    0.230D-05 0.784D-13
                            Exc = -14.0770190340     Coul =  87.9641809744    
                              N = 18.000103320    
                            current damping = 0.400
 
          Norm of current diis error: 0.34904E-03
          max. resid. norm for Fia-block=  3.171D-05 for orbital      9a         
          max. resid. fock norm         =  4.172D-05 for orbital    235a         

 ITERATION  ENERGY          1e-ENERGY        2e-ENERGY     RMS[dD(SAO)]   TOL
  10  -95.763901905933    -211.74425193     73.887063959    0.639D-06 0.784D-13
                            Exc = -14.0770061884     Coul =  87.9640701474    
                              N = 18.000103317    
                            current damping = 0.450
 
          Norm of current diis error: 0.74554E-04
          max. resid. norm for Fia-block=  4.527D-06 for orbital      7a         
          max. resid. fock norm         =  1.448D-05 for orbital    140a         
          mo-orthogonalization: Cholesky decomposition

 ITERATION  ENERGY          1e-ENERGY        2e-ENERGY     RMS[dD(SAO)]   TOL
  11  -95.763901906195    -211.74431433     73.887126359    0.137D-06 0.784D-13
                            Exc = -14.0770126025     Coul =  87.9641389616    
                              N = 18.000103317    
                            current damping = 0.500
 
          Norm of current diis error: 0.20635E-04
          max. resid. norm for Fia-block=  1.892D-06 for orbital      3a         
          max. resid. fock norm         =  5.316D-06 for orbital    140a         

 DENSITY CONVERGED !


 ITERATION  ENERGY          1e-ENERGY        2e-ENERGY     RMS[dD(SAO)]   TOL
  12  -95.763901906210    -211.74434386     73.887155892    0.375D-07 0.784D-13
                            Exc = -14.0770161932     Coul =  87.9641720856    
                              N = 18.000103316    
                            current damping = 0.350
 
          Norm of current diis error: 0.10966E-04
          max. resid. norm for Fia-block=  9.507D-07 for orbital      9a         
          max. resid. fock norm         =  1.914D-06 for orbital    294a         

 DENSITY CONVERGED !


 ITERATION  ENERGY          1e-ENERGY        2e-ENERGY     RMS[dD(SAO)]   TOL
  13  -95.763901906216    -211.74432765     73.887139680    0.261D-07 0.784D-13
                            Exc = -14.0770144634     Coul =  87.9641541438    
                              N = 18.000103316    
                            current damping = 0.400
 
          Norm of current diis error: 0.34460E-05
          max. resid. norm for Fia-block=  1.926D-07 for orbital      5a         
          max. resid. fock norm         =  6.632D-07 for orbital    140a         

 ENERGY & DENSITY CONVERGED !

          Overall gridpoints after grid construction =        285385

 ITERATION  ENERGY          1e-ENERGY        2e-ENERGY     RMS[dD(SAO)]   TOL
  14  -95.763885413952    -211.74433187     73.887160394    0.451D-08 0.784D-13
                            Exc = -14.0769984078     Coul =  87.9641588017    
                              N = 17.999995724    
                            current damping = 0.450
 
          Norm of current diis error: 0.80978E-06
          max. resid. norm for Fia-block=  5.148D-08 for orbital      3a         
          max. resid. fock norm         =  2.097D-07 for orbital    140a         

 End of SCF iterations

   convergence criteria satisfied after    14 iterations


                  ------------------------------------------ 
                 |  total energy      =    -95.76388541395  |
                  ------------------------------------------ 
                 :  kinetic energy    =     95.18086849714  :
                 :  potential energy  =   -190.94475391109  :
                 :  virial theorem    =      1.99391193335  :
                 :  wavefunction norm =      1.00000000000  :
                  .......................................... 


 <geterg> : there is no data group $energy 


 <skperg> : $end is missing 


 orbitals $scfmo  will be written to file mos

    irrep                  5a          6a          7a          8a          9a   
 eigenvalues H         -0.43947    -0.39205    -0.35507    -0.32163    -0.19614
            eV         -11.9587    -10.6683     -9.6620     -8.7521     -5.3373
 occupation              2.0000      2.0000      2.0000      2.0000      2.0000 

    irrep                 10a         11a         12a         13a         14a   
 eigenvalues H          0.00449     0.04630     0.05418     0.07945     0.09158
            eV           0.1222      1.2598      1.4745      2.1621      2.4919
 
 
 
 
 ==============================================================================
                           electrostatic moments
 ==============================================================================

 reference point for electrostatic moments:    0.00000   0.00000   0.00000

 
              nuc           elec       ->  total
 ------------------------------------------------------------------------------
                          charge      
 ------------------------------------------------------------------------------
          18.000000     -18.000000      -0.000000
 
 ------------------------------------------------------------------------------
                       dipole moment  
 ------------------------------------------------------------------------------
   x     -14.808146      14.771515      -0.036631
   y      12.932683     -13.448663      -0.515979
   z      24.251683     -24.390464      -0.138781
 
   | dipole moment | =     0.5356 a.u. =     1.3613 debye 
 
 ------------------------------------------------------------------------------
                     quadrupole moment
 ------------------------------------------------------------------------------
  xx      23.644450     -33.081450      -9.437000
  yy      23.357594     -36.597594     -13.240000
  zz      70.952770     -80.840920      -9.888150
  xy     -13.780797      14.301810       0.521013
  xz     -13.955157      14.029127       0.073970
  yz       2.394930      -2.604910      -0.209980
 
     1/3  trace=     -10.855050
     anisotropy=       3.730104
 
 ==============================================================================
 


    ------------------------------------------------------------------------
         total  cpu-time :  2 minutes and 39 seconds
         total wall-time :  19.80 seconds
    ------------------------------------------------------------------------

   ****  ridft : all done  ****


    2018-04-28 20:54:39.457 

