
 eiger (gplogin3.local) : TURBOMOLE V7.2 ( 21285 ) 30 Jun 2017 at 11:51:10
 Copyright (C) 2017 TURBOMOLE GmbH, Karlsruhe


    2017-11-11 17:23:44.129 

                                                                                
  
 HOMO-LUMO Separation
   HOMO:   234.   234 a     -0.18201069 H =     -4.95277 eV
   LUMO:   235.   235 a     -0.11685026 H =     -3.17966 eV
   Gap :                    +0.06516044 H =     +1.77311 eV
 
Number of MOs=   2664, Electrons=    468.00, Symmetry: c1   
 
   Nr.   Orbital    Occupation       Energy
  251.   251 a                     -0.046645 H =        -1.269 eV
  250.   250 a                     -0.046784 H =        -1.273 eV
  249.   249 a                     -0.054333 H =        -1.478 eV
  248.   248 a                     -0.054352 H =        -1.479 eV
  247.   247 a                     -0.054403 H =        -1.480 eV
  246.   246 a                     -0.054509 H =        -1.483 eV
  245.   245 a                     -0.054527 H =        -1.484 eV
  244.   244 a                     -0.054533 H =        -1.484 eV
  243.   243 a                     -0.054618 H =        -1.486 eV
  242.   242 a                     -0.054642 H =        -1.487 eV
  241.   241 a                     -0.054664 H =        -1.487 eV
  240.   240 a                     -0.072043 H =        -1.960 eV
  239.   239 a                     -0.072092 H =        -1.962 eV
  238.   238 a                     -0.097280 H =        -2.647 eV
  237.   237 a                     -0.097429 H =        -2.651 eV
  236.   236 a                     -0.116708 H =        -3.176 eV
  235.   235 a                     -0.116850 H =        -3.180 eV
  234.   234 a        2.000        -0.182011 H =        -4.953 eV
  233.   233 a        2.000        -0.182225 H =        -4.959 eV
  232.   232 a        2.000        -0.199713 H =        -5.434 eV
  231.   231 a        2.000        -0.199795 H =        -5.437 eV
  230.   230 a        2.000        -0.221759 H =        -6.034 eV
  229.   229 a        2.000        -0.221786 H =        -6.035 eV
  228.   228 a        2.000        -0.241629 H =        -6.575 eV
  227.   227 a        2.000        -0.241996 H =        -6.585 eV
  226.   226 a        2.000        -0.242840 H =        -6.608 eV
  225.   225 a        2.000        -0.243954 H =        -6.638 eV
  224.   224 a        2.000        -0.244186 H =        -6.645 eV
  223.   223 a        2.000        -0.244500 H =        -6.653 eV
  222.   222 a        2.000        -0.244873 H =        -6.663 eV
  221.   221 a        2.000        -0.245898 H =        -6.691 eV
  220.   220 a        2.000        -0.246103 H =        -6.697 eV
  219.   219 a        2.000        -0.246859 H =        -6.717 eV


    ------------------------------------------------------------------------
         total  cpu-time :   3.29 seconds
         total wall-time :   3.31 seconds
    ------------------------------------------------------------------------

   ****  eiger : all done  ****


    2017-11-11 17:23:47.412 

