
   OpenMP run-time library returned nthreads = 12

 ricc2 (c-12-37) : TURBOMOLE V7.3 ( 22142 ) 4 Jul 2018 at 18:12:42
 Copyright (C) 2018 TURBOMOLE GmbH, Karlsruhe


    2019-02-20 15:30:38.058 



                              R I C C 2 - PROGRAM

                          the quantum chemistry groups
                             at the universities in
                           Karlsruhe, Bochum & Mainz
                                   Germany



   *-----------------------------------------------------------------------*
   |                     program will use 12 thread(s)                     |
   *-----------------------------------------------------------------------*


              +--------------------------------------------------+
              | Atomic coordinate, charge and isotop information |
              +--------------------------------------------------+

                    atomic coordinates            atom    charge  isotop
          3.32504863    3.53778945   -5.88195488    n      7.000     0
          5.31113175    2.71334241   -7.63579180    c      6.000     0
          3.28614670    6.30798210   -5.69960578    c      6.000     0
          0.81458646    2.57125423   -6.60132364    c      6.000     0
          5.41722187    0.65317739   -7.66922896    h      1.000     0
          4.95804471    3.40575991   -9.57173914    h      1.000     0
          7.12955213    3.44209591   -6.98263474    h      1.000     0
          1.87201027    6.87726282   -4.30604713    h      1.000     0
          5.14008849    6.97231737   -5.07616450    h      1.000     0
          2.83153003    7.20013373   -7.52906246    h      1.000     0
          0.48896953   -0.25633627   -6.10784758    c      6.000     0
         -0.57917338    3.61545875   -5.48431276    h      1.000     0
          0.43811970    2.99824916   -8.61368357    h      1.000     0
         -2.05549796   -1.15671996   -7.12882732    c      6.000     0
          2.02220718   -1.31170110   -7.00935219    h      1.000     0
          0.59750572   -0.62164878   -4.07356776    h      1.000     0
         -2.68152854   -3.77552332   -6.43226601    n      7.000     0
         -3.57121007    0.04075393   -6.37395580    h      1.000     0
         -2.09912193   -0.93656318   -9.20897350    h      1.000     0
         -5.25288824   -4.39542434   -7.27486292    c      6.000     0
         -0.86146093   -5.61042528   -7.44374142    c      6.000     0
         -5.73228255   -6.30458081   -6.64998978    h      1.000     0
         -6.58817108   -3.06771482   -6.42407349    h      1.000     0
         -5.43249560   -4.29629915   -9.35048577    h      1.000     0
         -1.46669079   -7.50977586   -6.90544491    h      1.000     0
         -0.73504393   -5.50754310   -9.52417590    h      1.000     0
          1.00652163   -5.27402855   -6.63639349    h      1.000     0
 
       center of nuclear mass  :    0.26916643   -0.00664577   -6.72726059
       center of nuclear charge:    0.27161050   -0.00333441   -6.76947074

              +--------------------------------------------------+
              |               basis set information              |
              +--------------------------------------------------+

              we will work with the 1s 3p 5d 7f 9g ... basis set
              ...i.e. with spherical basis functions...

   type   atoms  prim   cont   basis
   ---------------------------------------------------------------------------
    n        2    118     91   cc-pV5Z   [6s5p4d3f2g1h|24s8p4d3f2g1h]
    c        7    118     91   cc-pV5Z   [6s5p4d3f2g1h|24s8p4d3f2g1h]
    h       18     58     55   cc-pV5Z   [5s4p3d2f1g|8s4p3d2f1g]
   ---------------------------------------------------------------------------
   total:   27   2106   1809
   ---------------------------------------------------------------------------

   total number of primitive shells          :  102
   total number of contracted shells         :  459
   total number of cartesian basis functions : 2394
   total number of SCF-basis functions       : 1809


 symmetry group of the molecule :   c1 

 the group has the following generators :
   c1(z)

    1 symmetry operations found

 there are 1 real representations :   a   


   =========================================================================


     restricted closed shell calculation for the wavefunction models:
               MP2        - Second Order Moeller Plesset PT


     global parameters for ricc2 program:

        hard restart (reuse of interm.) :  enabled 
        soft restart (reuse of vectors) :  disabled
        threshold for vector function   :    0.100000E-05
        convergence threshold energy    :    0.100000E-06
        linear dependence threshold     :    0.100000E-13
        global print level              :      1
        maximum number of iterations    :   300
        maximum number DIIS vectors     :    10
        max. dim. of reduced space      :   100
        core memory limit (MB)          : 36000


     MP2 energy only: Energy will be calculated directly from T2 amplitudes!

     Scratch Directory : 


   =========================================================================

    der. integral neglect threshold  :  0.10E-07
    integral neglect threshold       :  0.14E-11
    integral storage threshold THIZE :  0.10E-04
    integral storage threshold THIME :         5


                  +------------------------------------------+
                  |     Auxiliary basis set information      |
                  +------------------------------------------+

              we will work with the 1s 3p 5d 7f 9g ... basis set
              ...i.e. with spherical basis functions...

   type   atoms  prim   cont   basis
   ---------------------------------------------------------------------------
    n        2    193    193   cc-pV5Z   [10s8p7d6f4g3h1i|10s8p7d6f4g3h1i]
    c        7    193    193   cc-pV5Z   [10s8p7d6f4g3h1i|10s8p7d6f4g3h1i]
    h       18     91     91   cc-pV5Z   [6s5p4d3f2g1h|6s5p4d3f2g1h]
   ---------------------------------------------------------------------------
   total:   27   3375   3375
   ---------------------------------------------------------------------------

   total number of primitive shells          :   99
   total number of contracted shells         :  729
   total number of cartesian basis functions : 4851
   total number of SCF-basis functions       : 3375


 maximum number of shells which are related by symmetry :  1


 The symmetry information takes   1 MB

*---------------------------------------------------------------------*
|               simplified C1 algorithm will be applied               |
*---------------------------------------------------------------------*
  MOs are in ASCII format !


 reading orbital data $scfmo  from file mos
 orbital characterization : scfconv=7



              +--------------------------------------------+
              | list of orbitals that will be kept frozen: |
              +--------------------------------------------+
              |   irrep   index      energy     occ/vir    |
              +--------------------------------------------+
              |   a         1      -15.5424     occupied   |
              |   a         2      -15.5421     occupied   |
              |   a         3      -11.2443     occupied   |
              |   a         4      -11.2438     occupied   |
              |   a         5      -11.2393     occupied   |
              |   a         6      -11.2391     occupied   |
              |   a         7      -11.2388     occupied   |
              |   a         8      -11.2383     occupied   |
              |   a         9      -11.2127     occupied   |
              +--------------------------------------------+



   Molecular Orbital Statistic:
   ============================

   -----------------------------
   orbitals in total:
   -----------------------------
    frozen occupied :      9
    active occupied :     28
    active virtual  :   1772
    frozen virtual  :      0
    all together    :   1809
   -----------------------------


     time in riccmos       cpu: 11.77 sec    wall: 17.41 sec    ratio:  0.7

     total memory allocated for calculation of (Q|P)**(-1/2) : 131 MiB


     calculation of (P|Q) ...
     time in lp2sym        cpu:  4.28 sec    wall:  0.37 sec    ratio: 11.5


     calculation of the Cholesky decomposition of (P|Q)**(-1) ...
     time in invmetri      cpu: 30.63 sec    wall:  3.34 sec    ratio:  9.2

   threshold for RMS(d[D]) in SCF was     :  0.10E-06
   integral neglect threshold             :  0.14E-11
   derivative integral neglect threshold  :  0.10E-07


   =========================================================================

     Energy of reference wave function is  -384.5774903248000
     Maximum orbital residual is           0.1603171461033E-05


     Number of symmetry-nonredundant auxiliary basis functions:     3375

     Block lengths for integral files:
        frozen occupied (BOI):        1 MiB
        active occupied (BJI):        1 MiB
        active virtual  (BAI):       46 MiB
        frozen virtual  (BGI):        0 MiB
               general  (BTI):       47 MiB

   =========================================================================



  ----------------------------------------------------------------------------
  hard_restart flag is disabled because the check sum for the
  B(Q|ia)  "$chkbqia" differs from the reference value:
  reference value:     97.2853457236574    
  computed value :     73.8304702868804    
  relative error :    0.241093612427523    
  tolerance      :    0.100000000000000E-11
  the calculation will proceed...
  ----------------------------------------------------------------------------


   **************************************************************************
   *                                                                        *
   *          OPTIMIZATION OF THE GROUND STATE CLUSTER AMPLITUDES           *
   *                                                                        *
   **************************************************************************


   Iter.   MP2 energy       Norm(Omega)   Norm(t1)  Norm(t2)     cpu    wall
   ...........................................................................
    1   -386.3854138251     ------          0.00000   0.44159   12.58    1.34
   ...........................................................................


     time in total         cpu: 12 min 35 s  wall:  1 min 20 s  ratio:  9.4


     **********************************************************************
     *                                                                    *
     *   RHF  energy                             :   -384.5774903248      *
     *   MP2 correlation energy (doubles)        :     -1.8079235003      *
     *                                                                    *
     *   Final MP2 energy                        :   -386.3854138251      *
     *                                                                    *
     *    E(S)   =     -1.2138520345      E(T)   =     -0.5940714659      *
     *    E(OS)  =     -1.4118758564      E(SS)  =     -0.3960476439      *
     *                                                                    *
     *   SCS-MP2 energy                          :   -386.4037572338      *
     *   (computed with  C(OS) =   1.2000  and  C(SS) =   0.3333)         *
     *                                                                    *
     *   SOS-MP2 energy                          :   -386.4129289382      *
     *   (computed with  C(OS) =   1.3000)                                *
     *                                                                    *
     *   Norm of MP1 T2 amplitudes               :      0.4415851254      *
     *                                                                    *
     **********************************************************************



    ------------------------------------------------------------------------
         total  cpu-time : 36 minutes and 52 seconds
         total wall-time :  7 minutes and 59 seconds
    ------------------------------------------------------------------------

   ****  ricc2 : all done  ****


    2019-02-20 15:38:37.146 

