STARTING dscf ON 2 PROCESSORS!
RUNNING PROGRAM /beegfs/modfac/apps/TURBOMOLE/7.2.1-official/bin/em64t-unknown-linux-gnu_mpi/dscf_mpi.
PLEASE WAIT UNTIL dscf HAS FINISHED.
Look for the output in slave1.output.
MACHINEFILE is ./hostlist
 this is node-proc. number 1 running on node c-5-33.local
 the total number of node-proc. spawned is   3
  parallel platform: MPP or cluster with fast interconnect

 dscf (c-5-33.local) : TURBOMOLE V7.2 ( 21471 ) 7 Nov 2017 at 16:15:16
 Copyright (C) 2017 TURBOMOLE GmbH, Karlsruhe


    2018-02-14 09:35:52.337 


 SCF run will be profiled !



                             d s c f - program

                   idea & directorship : reinhart ahlrichs
                   program development : marco haeser
                                         michael baer
                           dft version : oliver treutler
           parallelized version : malte v. arnim, gina corongiu, GMD 


                          quantum chemistry group
                          universitaet  karlsruhe
                                  germany




                          References             
                                                 
          TURBOMOLE:                             
              R. Ahlrichs, M. Baer, M. Haeser, H. Horn, and
              C. Koelmel
              Electronic structure calculations on workstation
              computers: the program system TURBOMOLE
              Chem. Phys. Lett. 162: 165 (1989)
          Density Functional:                              
              O. Treutler and R. Ahlrichs                      
              Efficient Molecular Numerical Integration Schemes
              J. Chem. Phys. 102: 346 (1995)                   
          Parallel Version:                                
              Performance of parallel TURBOMOLE for Density    
              Functional Calculations                          
              M. v. Arnim and R. Ahlrichs                      
              J. Comp. Chem. 19: 1746 (1998)                   
                                         




              +--------------------------------------------------+
              | Atomic coordinate, charge and isotop information |
              +--------------------------------------------------+

                    atomic coordinates            atom    charge  isotop
         -3.56362974   -1.21622675    2.22687486    c      6.000     0
         -2.16726301    1.15279398    1.28353670    c      6.000     0
         -1.96477477    1.09717192   -1.61515204    c      6.000     0
         -0.51631289   -1.30040425   -2.39050988    c      6.000     0
         -1.85628541   -3.69429145   -1.42885597    c      6.000     0
         -2.06905314   -3.58373873    1.46318830    c      6.000     0
         -0.59062025    3.45494447   -2.61742941    c      6.000     0
          2.06882561    3.58387171   -1.46325484    c      6.000     0
          3.56322359    1.21621579   -2.22689384    c      6.000     0
          2.16678189   -1.15270166   -1.28347681    c      6.000     0
          1.96440681   -1.09689187    1.61517103    c      6.000     0
          0.51587058    1.30065959    2.39049282    c      6.000     0
          1.85582554    3.69456685    1.42875459    c      6.000     0
          0.59028755   -3.45463383    2.61755251    c      6.000     0
          3.47858389    6.02470387   -2.45971058    n      7.000     0
          6.26086292    5.97300915   -1.82915168    c      6.000     0
         -3.47840355   -6.02473984    2.45959120    n      7.000     0
         -3.26490836   -6.28941420    5.29240639    c      6.000     0
         -6.26126392   -5.97206910    1.83177319    c      6.000     0
         -2.40759119   -8.40846383    1.31412034    c      6.000     0
          3.26785217    6.28767440   -5.29289723    c      6.000     0
          2.40612648    8.40880493   -1.31656890    c      6.000     0
          3.24844372   -2.82022983   -1.87096286    h      1.000     0
          3.86552801   -1.05494372    2.43902403    h      1.000     0
          0.40828849    1.40363215    4.45767753    h      1.000     0
         -3.24902105    2.82027729    1.87097623    h      1.000     0
         -3.86591312    1.05531252   -2.43897517    h      1.000     0
         -0.40862535   -1.40328375   -4.45769097    h      1.000     0
         -5.44824736   -1.24102516    1.37944710    h      1.000     0
         -3.78075519   -1.11374458    4.28255079    h      1.000     0
          0.48335039   -3.31885293    4.67682885    h      1.000     0
          1.68445452   -5.14445732    2.13751331    h      1.000     0
         -0.74972633   -5.33884706   -2.01415581    h      1.000     0
         -3.72803702   -3.83234336   -2.30057163    h      1.000     0
         -0.48389396    3.31939217   -4.67672761    h      1.000     0
         -1.68465417    5.14475533   -2.13705221    h      1.000     0
          0.74913154    5.33903849    2.01403567    h      1.000     0
          3.72752949    3.83266160    2.30056477    h      1.000     0
          3.78023890    1.11356229   -4.28256836    h      1.000     0
          5.44785282    1.24087090   -1.37949669    h      1.000     0
         -7.01396460   -7.82314468    2.35578373    h      1.000     0
         -7.17100258   -4.49809094    2.93907219    h      1.000     0
         -6.49223246   -5.62672437   -0.18345355    h      1.000     0
         -3.87743748   -4.53823913    6.18208083    h      1.000     0
         -4.49499003   -7.86048799    5.82693722    h      1.000     0
         -1.31465122   -6.71864316    5.78089926    h      1.000     0
         -3.31122864   -9.98562159    2.29562090    h      1.000     0
         -2.87369448   -8.45911842   -0.68757584    h      1.000     0
         -0.36952130   -8.43600282    1.59548204    h      1.000     0
          7.17180833    4.49816356   -2.93426073    h      1.000     0
          7.01396434    7.82366157   -2.35410590    h      1.000     0
          6.48990576    5.62955670    0.18661469    h      1.000     0
          3.31105343    9.98575411   -2.29723095    h      1.000     0
          0.36844520    8.43615089   -1.60073568    h      1.000     0
          2.86951290    8.46008886    0.68572663    h      1.000     0
          4.49792922    7.85881042   -5.82728570    h      1.000     0
          3.88171069    4.53610369   -6.18085253    h      1.000     0
          1.31797724    6.71617823   -5.78349892    h      1.000     0
          6.98152927   12.08844786   -4.93521534    cl    17.000     0
         -6.97959869  -12.08945899    4.93601996    cl    17.000     0
 
       center of nuclear mass  :    0.00013532   -0.00006831    0.00006031
       center of nuclear charge:    0.00011654   -0.00005886    0.00005176

              +--------------------------------------------------+
              |               basis set information              |
              +--------------------------------------------------+

              we will work with the 1s 3p 5d 7f 9g ... basis set
              ...i.e. with spherical basis functions...

   type   atoms  prim   cont   basis
   ---------------------------------------------------------------------------
    c       20     50     30   cc-pVTZ   [4s3p2d1f|18s5p2d1f]
    n        2     50     30   cc-pVTZ   [4s3p2d1f|18s5p2d1f]
    h       36     16     14   cc-pVTZ   [3s2p1d|5s2p1d]
    cl       2    106     34   cc-pVTZ   [5s4p2d1f|41s16p2d1f]
   ---------------------------------------------------------------------------
   total:   60   1888   1232
   ---------------------------------------------------------------------------

   total number of primitive shells          :  120
   total number of contracted shells         :  460
   total number of cartesian basis functions : 1388
   total number of SCF-basis functions       : 1232


 integral neglect threshold       :  0.24E-13
 integral storage threshold THIZE :  0.10E-04
 integral storage threshold THIME :         5


 DENSITY CONVERGENCE CHECK SWITCHED ON !
 SCF CONVERGENCE IF RMS(delta[D]) <     0.1000000000E-06


 symmetry group of the molecule :   c1 

 the group has the following generators :
   c1(z)

    1 symmetry operations found

 there are 1 real representations :   a   

 maximum number of shells which are related by symmetry :  1


    mo occupation :
   irrep   mo's   occupied
    a     1232      102
 
 number of basis functions   :                   1232
 number of occupied orbitals :                    102
 

 automatic virtual orbital shift switched on 
      shift if e(lumo)-e(homo) < 0.10000000    


 keyword $2e-ints_shell_statistics missing in file <control>

 ! One task per shell generated
  No pre-computed optimal task distribution found
  ... using automatic task generation

          ------------------------
          nuclear repulsion energy  :   2642.57268670    
          ------------------------


         -----------------
         -S,T+V- integrals
         -----------------

 1e-integrals will be neglected if expon. factor < 0.240775E-14
 
   Difference densities algorithm switched on.
   The maximal number of linear combinations of
   difference densities is                    20 .

 DIIS switched on: error vector is FDS-SDF
 Max. Iterations for DIIS is     :   5
 DIIS matrix (see manual) 
    Scaling factor of diagonals  :  1.200
    threshold for scaling factor :  0.000

 scf convergence criterion : increment of total energy < .1000000D-08
                  and increment of one-electron energy < .1000000D-05

  MOs are in ASCII format !


 reading orbital data $scfmo  from file mos
 orbital characterization : scfconv=9

 DSCF restart information will be dumped onto file mos

 
                                              current damping :  0.300
 ITERATION  ENERGY          1e-ENERGY        2e-ENERGY     RMS[dD(SAO)]   TOL
   1  -1806.4886901053    -7727.2773159     3278.2159391    0.000D+00 0.240D-13
          max. resid. norm for Fia-block=  1.204D-04 for orbital     57a         
          max. resid. fock norm         =  2.110D-03 for orbital   1167a         
          Delta Eig. =     0.1112957477 eV 
 
                                              current damping :  0.250
 ITERATION  ENERGY          1e-ENERGY        2e-ENERGY     RMS[dD(SAO)]   TOL
   2  -1806.4886903361    -7727.2782325     3278.2168555    0.369D-05 0.152D-13
          Norm of current diis error: 0.67289E-03
          max. resid. norm for Fia-block=  3.777D-05 for orbital     57a         
          max. resid. fock norm         =  4.825D-04 for orbital   1207a         
          Delta Eig. =     0.0263859178 eV 
 
                                              current damping :  0.200
 ITERATION  ENERGY          1e-ENERGY        2e-ENERGY     RMS[dD(SAO)]   TOL
   3  -1806.4886903591    -7727.2774651     3278.2160881    0.120D-05 0.121D-13
          Norm of current diis error: 0.18005E-03
          max. resid. norm for Fia-block=  8.985D-06 for orbital     82a         
          max. resid. fock norm         =  1.003D-04 for orbital   1167a         
          Delta Eig. =     0.0057203734 eV 
 
                                              current damping :  0.250
 ITERATION  ENERGY          1e-ENERGY        2e-ENERGY     RMS[dD(SAO)]   TOL
   4  -1806.4886903606    -7727.2779480     3278.2165710    0.283D-06 0.108D-13
          Norm of current diis error: 0.46795E-04
          max. resid. norm for Fia-block=  1.751D-06 for orbital     82a         
          max. resid. fock norm         =  1.567D-05 for orbital   1207a         
          Delta Eig. =     0.0008343906 eV 

 DENSITY CONVERGED !

 
                                              current damping :  0.300
 ITERATION  ENERGY          1e-ENERGY        2e-ENERGY     RMS[dD(SAO)]   TOL
   5  -1806.4886903607    -7727.2777427     3278.2163657    0.517D-07 0.102D-13
          Norm of current diis error: 0.12824E-04
          max. resid. norm for Fia-block=  4.654D-07 for orbital     75a         
          max. resid. fock norm         =  3.365D-06 for orbital   1167a         
 mo-orthogonalization: Cholesky decomposition
          Delta Eig. =     0.0001778286 eV 

 DENSITY CONVERGED !

 
                                              current damping :  0.350
 ITERATION  ENERGY          1e-ENERGY        2e-ENERGY     RMS[dD(SAO)]   TOL
   6  -1806.4886903607    -7727.2777724     3278.2163954    0.117D-07 0.965D-14
          Norm of current diis error: 0.41401E-05
          max. resid. norm for Fia-block=  1.890D-07 for orbital     94a         
          max. resid. fock norm         =  8.008D-07 for orbital   1167a         
          Delta Eig. =     0.0000409344 eV 

 ENERGY & DENSITY CONVERGED !

 
                                              current damping :  0.200
 ITERATION  ENERGY          1e-ENERGY        2e-ENERGY     RMS[dD(SAO)]   TOL
   7  -1806.4886903607    -7727.2777727     3278.2163956    0.364D-08 0.912D-14
          max. resid. norm for Fia-block=  6.776D-08 for orbital     97a         
          max. resid. fock norm         =  2.005D-07 for orbital    968a         

 convergence criteria satisfied after     7 iterations


                  ------------------------------------------ 
                 |  total energy      =  -1806.48869036072  |
                  ------------------------------------------ 
                 :  kinetic energy    =   1805.16439260889  :
                 :  potential energy  =  -3611.65308296961  :
                 :  virial theorem    =      1.99926692165  :
                 :  wavefunction norm =      1.00000000000  :
                  .......................................... 


 orbitals $scfmo  will be written to file mos

    irrep                 98a         99a        100a        101a        102a   
 eigenvalues H         -0.30254    -0.29968    -0.29968    -0.29966    -0.29966
            eV          -8.2326     -8.1547     -8.1547     -8.1544     -8.1544
 occupation              2.0000      2.0000      2.0000      2.0000      2.0000 

    irrep                103a        104a        105a        106a        107a   
 eigenvalues H          0.05816     0.08850     0.08851     0.09045     0.10947
            eV           1.5827      2.4083      2.4084      2.4613      2.9790
 
 
 
 
 ==============================================================================
                           electrostatic moments
 ==============================================================================

 reference point for electrostatic moments:    0.00000   0.00000   0.00000

 
              nuc           elec       ->  total
 ------------------------------------------------------------------------------
                          charge      
 ------------------------------------------------------------------------------
         204.000000    -204.000000      -0.000000
 
 ------------------------------------------------------------------------------
                       dipole moment  
 ------------------------------------------------------------------------------
   x       0.023774      -0.025130      -0.001357
   y      -0.012008       0.012870       0.000862
   z       0.010558      -0.011288      -0.000730
 
   | dipole moment | =     0.0018 a.u. =     0.0045 debye 
 
 ------------------------------------------------------------------------------
                     quadrupole moment
 ------------------------------------------------------------------------------
  xx    3421.795366   -3596.609185    -174.813819
  yy    8912.728745   -9208.341624    -295.612879
  zz    2048.535902   -2193.131405    -144.595504
  xy    4756.142614   -4860.791493    -104.648880
  xz   -1941.804705    1984.532175      42.727470
  yz   -3362.936708    3436.929630      73.992922
 
     1/3  trace=    -205.007401
     anisotropy=     271.867311
 
 ==============================================================================
 

    dscf profiling
  --------------------------------------------------------------------
             module   cpu total (s)       %  wall total (s)       %

          dscf.total          8255.6  100.00          8253.6  100.00
        dscf.prepare             2.9    0.04             2.9    0.04
      prepare.oneint             0.3    0.00             0.3    0.00
     prepare.moinput             1.2    0.01             1.2    0.01
     moinput_orthmos             1.0    0.01             1.0    0.01
            dscf.scf          8252.2   99.96          8250.2   99.96
             scf.pre             0.0    0.00             0.0    0.00
        scf.makedmat             0.7    0.01             0.8    0.01
          scf.shloop          8196.9   99.29          8194.1   99.28
          shloop_omp          8196.9   99.29          8194.1   99.28
          scf.symcar             0.1    0.00             0.1    0.00
        scf.makefock             0.2    0.00             0.4    0.00
          scf.newerg             0.0    0.00             0.0    0.00
          scf.newcnv             4.1    0.05             4.1    0.05
           scf.fdiag            11.6    0.14            11.6    0.14
         diag_tritrn             3.8    0.05             3.8    0.05
          diag_rdiag             7.7    0.09             7.8    0.09
          scf.modump            32.0    0.39            32.4    0.39
           ortho_all             1.0    0.01             1.0    0.01
            scf.post             5.4    0.07             5.5    0.07
        dscf.postscf             0.5    0.01             0.5    0.01
 


    ------------------------------------------------------------------------
         total  cpu-time :  2 hours 17 minutes and 36 seconds
         total wall-time :  2 hours 17 minutes and 34 seconds
    ------------------------------------------------------------------------

   ****  dscf : all done  ****


    2018-02-14 11:53:25.971 

