
   OpenMP run-time library returned nthreads =  8
 operating system is UNIX !

 dscf (c-3-37) : TURBOMOLE V7.3 ( 22142 ) 4 Jul 2018 at 18:12:42
 Copyright (C) 2018 TURBOMOLE GmbH, Karlsruhe


    2019-04-02 13:57:01.593 



                             d s c f - program

                   idea & directorship : reinhart ahlrichs
                   program development : marco haeser
                                         michael baer
                           dft version : oliver treutler


                          quantum chemistry group
                          universitaet  karlsruhe
                                  germany




                          References             
                                                 
          TURBOMOLE:                             
              R. Ahlrichs, M. Baer, M. Haeser, H. Horn, and
              C. Koelmel
              Electronic structure calculations on workstation
              computers: the program system TURBOMOLE
              Chem. Phys. Lett. 162: 165 (1989)
          Density Functional:                              
              O. Treutler and R. Ahlrichs                      
              Efficient Molecular Numerical Integration Schemes
              J. Chem. Phys. 102: 346 (1995)                   
          Parallel Version:                                
              Performance of parallel TURBOMOLE for Density    
              Functional Calculations                          
              M. v. Arnim and R. Ahlrichs                      
              J. Comp. Chem. 19: 1746 (1998)                   
                                         




              +--------------------------------------------------+
              | Atomic coordinate, charge and isotop information |
              +--------------------------------------------------+

                    atomic coordinates            atom    charge  isotop
          2.49965928   -0.01960775    1.92597813    n      7.000     0
          1.23075219   -2.17128026    1.50573604    c      6.000     0
          2.26846206   -3.90328240    1.83997498    h      1.000     0
         -1.27118344   -2.25767797    0.69288118    c      6.000     0
         -2.18677903   -4.05784939    0.39016055    h      1.000     0
         -2.54583291    0.00592238    0.28751051    c      6.000     0
         -4.48877330    0.01588395   -0.34448388    h      1.000     0
         -1.25583256    2.25650426    0.71620996    c      6.000     0
         -2.15925084    4.06585471    0.43221912    h      1.000     0
          1.24513254    2.14479861    1.52852363    c      6.000     0
          2.29432163    3.86621044    1.88110579    h      1.000     0
 
       center of nuclear mass  :   -0.00615173   -0.00693995    1.11288958
       center of nuclear charge:   -0.05609975   -0.00668654    1.09680932

              +--------------------------------------------------+
              |               basis set information              |
              +--------------------------------------------------+

              we will work with the 1s 3p 5d 7f 9g ... basis set
              ...i.e. with spherical basis functions...

   type   atoms  prim   cont   basis
   ---------------------------------------------------------------------------
    n        1     77     57   def2-QZVP   [7s4p3d2f1g|15s8p3d2f1g]
    c        5     77     57   def2-QZVP   [7s4p3d2f1g|15s8p3d2f1g]
    h        5     33     30   def2-QZVP   [4s3p2d1f|7s3p2d1f]
   ---------------------------------------------------------------------------
   total:   11    627    492
   ---------------------------------------------------------------------------

   total number of primitive shells          :   71
   total number of contracted shells         :  152
   total number of cartesian basis functions :  607
   total number of SCF-basis functions       :  492


 integral neglect threshold       :  0.55E-13
 integral storage threshold THIZE :  0.10E-04
 integral storage threshold THIME :         5


 DENSITY CONVERGENCE CHECK SWITCHED ON !
 SCF CONVERGENCE IF RMS(delta[D]) <     0.1000000000E-06


 symmetry group of the molecule :   c1 

 the group has the following generators :
   c1(z)

    1 symmetry operations found

 there are 1 real representations :   a   

 maximum number of shells which are related by symmetry :  1


    mo occupation :
   irrep   mo's   occupied
    a      492       21
 
 number of basis functions   :                    492
 number of occupied orbitals :                     21
 

 automatic virtual orbital shift switched on 
      shift if e(lumo)-e(homo) < 0.10000000    


          ------------------------
          nuclear repulsion energy  :   206.196086551    
          ------------------------


         -----------------
         -S,T+V- integrals
         -----------------

 1e-integrals will be neglected if expon. factor < 0.550570E-14
 
   Difference densities algorithm switched on.
   The maximal number of linear combinations of
   difference densities is                    20 .

 DIIS switched on: error vector is FDS-SDF
 Max. Iterations for DIIS is     :   5
 DIIS matrix (see manual) 
    Scaling factor of diagonals  :  1.200
    threshold for scaling factor :  0.000

 scf convergence criterion : increment of total energy < .1000000D-08
                  and increment of one-electron energy < .1000000D-05

  MOs are in ASCII format !


 reading orbital data $scfmo  from file mos
 orbital characterization : scfconv=9

 DSCF restart information will be dumped onto file mos

 
                                              current damping :  0.700
 ITERATION  ENERGY          1e-ENERGY        2e-ENERGY     RMS[dD(SAO)]   TOL
   1  -246.73771609362    -742.08614196     289.15233931    0.000D+00 0.549D-13
          max. resid. norm for Fia-block=  2.293D-01 for orbital      1a         
          max. resid. fock norm         =  7.070D-01 for orbital    492a         
          Delta Eig. =    54.6040634259 eV 
 
                                              current damping :  0.650
 ITERATION  ENERGY          1e-ENERGY        2e-ENERGY     RMS[dD(SAO)]   TOL
   2  -246.78312742656    -741.23007129     288.25085732    0.923D-03 0.363D-13
          Norm of current diis error: 0.69071    
          max. resid. norm for Fia-block=  1.009D-01 for orbital      1a         
          max. resid. fock norm         =  2.901D-01 for orbital    492a         
          Delta Eig. =    22.6385762488 eV 
 
                                              current damping :  0.600
 ITERATION  ENERGY          1e-ENERGY        2e-ENERGY     RMS[dD(SAO)]   TOL
   3  -246.79228517798    -741.32387159     288.33549986    0.451D-03 0.268D-13
          Norm of current diis error: 0.29709    
          max. resid. norm for Fia-block=  4.116D-02 for orbital      1a         
          max. resid. fock norm         =  1.147D-01 for orbital    492a         
          Delta Eig. =     9.2383734049 eV 
 
                                              current damping :  0.650
 ITERATION  ENERGY          1e-ENERGY        2e-ENERGY     RMS[dD(SAO)]   TOL
   4  -246.79417895863    -741.25086399     288.26059848    0.197D-03 0.232D-13
          Norm of current diis error: 0.11915    
          max. resid. norm for Fia-block=  1.540D-02 for orbital      1a         
          max. resid. fock norm         =  4.336D-02 for orbital    492a         
          Delta Eig. =     3.4487495581 eV 
 
                                              current damping :  0.500
 ITERATION  ENERGY          1e-ENERGY        2e-ENERGY     RMS[dD(SAO)]   TOL
   5  -246.79450419248    -741.23543944     288.24484870    0.751D-04 0.214D-13
          Norm of current diis error: 0.50820E-01
          max. resid. norm for Fia-block=  6.086D-03 for orbital      1a         
          max. resid. fock norm         =  1.701D-02 for orbital    492a         
 mo-orthogonalization: Cholesky decomposition
          Delta Eig. =     1.4683447731 eV 
 
                                              current damping :  0.350
 ITERATION  ENERGY          1e-ENERGY        2e-ENERGY     RMS[dD(SAO)]   TOL
   6  -246.79457529297    -741.22901669     288.23835485    0.364D-04 0.199D-13
          Norm of current diis error: 0.19864E-01
          max. resid. norm for Fia-block=  1.998D-03 for orbital      1a         
          max. resid. fock norm         =  5.695D-03 for orbital    492a         
          Delta Eig. =     0.5596302972 eV 
 
                                              current damping :  0.200
 ITERATION  ENERGY          1e-ENERGY        2e-ENERGY     RMS[dD(SAO)]   TOL
   7  -246.79459023881    -741.22578596     288.23510917    0.154D-04 0.186D-13
          Norm of current diis error: 0.78304E-02
          max. resid. norm for Fia-block=  5.982D-04 for orbital     21a         
          max. resid. fock norm         =  1.459D-03 for orbital    492a         
          Delta Eig. =     0.1595806828 eV 
 
                                              current damping :  0.050
 ITERATION  ENERGY          1e-ENERGY        2e-ENERGY     RMS[dD(SAO)]   TOL
   8  -246.79459408327    -741.22534621     288.23466557    0.658D-05 0.173D-13
          Norm of current diis error: 0.38098E-02
          max. resid. norm for Fia-block=  3.914D-04 for orbital     21a         
          max. resid. fock norm         =  3.914D-04 for orbital     21a         
          Delta Eig. =     0.0371987110 eV 
 
                                              current damping :  0.050
 ITERATION  ENERGY          1e-ENERGY        2e-ENERGY     RMS[dD(SAO)]   TOL
   9  -246.79459551775    -741.22503498     288.23435291    0.327D-05 0.158D-13
          Norm of current diis error: 0.19581E-02
          max. resid. norm for Fia-block=  2.598D-04 for orbital     20a         
          max. resid. fock norm         =  2.636D-04 for orbital     20a         
          Delta Eig. =     0.0033646534 eV 
 
                                              current damping :  0.100
 ITERATION  ENERGY          1e-ENERGY        2e-ENERGY     RMS[dD(SAO)]   TOL
  10  -246.79459598723    -741.22533025     288.23464771    0.203D-05 0.145D-13
          Norm of current diis error: 0.86882E-03
          max. resid. norm for Fia-block=  1.261D-04 for orbital     21a         
          max. resid. fock norm         =  1.261D-04 for orbital     21a         
 mo-orthogonalization: Cholesky decomposition
          Delta Eig. =     0.0054600316 eV 
 
                                              current damping :  0.150
 ITERATION  ENERGY          1e-ENERGY        2e-ENERGY     RMS[dD(SAO)]   TOL
  11  -246.79459606770    -741.22516433     288.23448172    0.100D-05 0.137D-13
          Norm of current diis error: 0.38539E-03
          max. resid. norm for Fia-block=  5.340D-05 for orbital     20a         
          max. resid. fock norm         =  5.772D-05 for orbital     20a         
          Delta Eig. =     0.0019804299 eV 
 
                                              current damping :  0.200
 ITERATION  ENERGY          1e-ENERGY        2e-ENERGY     RMS[dD(SAO)]   TOL
  12  -246.79459607932    -741.22528881     288.23460618    0.326D-06 0.134D-13
          Norm of current diis error: 0.13496E-03
          max. resid. norm for Fia-block=  1.642D-05 for orbital     20a         
          max. resid. fock norm         =  1.656D-05 for orbital     19a         
          Delta Eig. =     0.0005595187 eV 
 
                                              current damping :  0.250
 ITERATION  ENERGY          1e-ENERGY        2e-ENERGY     RMS[dD(SAO)]   TOL
  13  -246.79459608097    -741.22528035     288.23459772    0.181D-06 0.131D-13
          Norm of current diis error: 0.47428E-04
          max. resid. norm for Fia-block=  7.080D-06 for orbital     20a         
          max. resid. fock norm         =  7.130D-06 for orbital     20a         
          Delta Eig. =     0.0000755384 eV 

 DENSITY CONVERGED !

 
                                              current damping :  0.300
 ITERATION  ENERGY          1e-ENERGY        2e-ENERGY     RMS[dD(SAO)]   TOL
  14  -246.79459608120    -741.22528298     288.23460035    0.739D-07 0.156D-13
          Norm of current diis error: 0.20432E-04
          max. resid. norm for Fia-block=  2.853D-06 for orbital     19a         
          max. resid. fock norm         =  3.019D-06 for orbital     19a         
          Delta Eig. =     0.0000335277 eV 

 ENERGY & DENSITY CONVERGED !

 
                                              current damping :  0.150
 ITERATION  ENERGY          1e-ENERGY        2e-ENERGY     RMS[dD(SAO)]   TOL
  15  -246.79459608126    -741.22528413     288.23460149    0.321D-07 0.157D-13
          max. resid. norm for Fia-block=  6.803D-07 for orbital     19a         
          max. resid. fock norm         =  7.361D-07 for orbital     19a         

 convergence criteria satisfied after    15 iterations


                  ------------------------------------------ 
                 |  total energy      =   -246.79459608126  |
                  ------------------------------------------ 
                 :  kinetic energy    =    246.43129404120  :
                 :  potential energy  =   -493.22589012246  :
                 :  virial theorem    =      1.99852791736  :
                 :  wavefunction norm =      1.00000000000  :
                  .......................................... 


 orbitals $scfmo  will be written to file mos

    irrep                 17a         18a         19a         20a         21a   
 eigenvalues H         -0.54129    -0.52040    -0.41980    -0.38414    -0.34808
            eV         -14.7294    -14.1610    -11.4234    -10.4532     -9.4717
 occupation              2.0000      2.0000      2.0000      2.0000      2.0000 

    irrep                 22a         23a         24a         25a         26a   
 eigenvalues H          0.09692     0.10668     0.11348     0.12197     0.13214
            eV           2.6373      2.9030      3.0879      3.3191      3.5958
 
 
 
 
 ==============================================================================
                           electrostatic moments
 ==============================================================================

 reference point for electrostatic moments:    0.00000   0.00000   0.00000

 
              nuc           elec       ->  total
 ------------------------------------------------------------------------------
                          charge      
 ------------------------------------------------------------------------------
          42.000000     -42.000000       0.000000
 
 ------------------------------------------------------------------------------
                       dipole moment  
 ------------------------------------------------------------------------------
   x      -2.356190       1.483867      -0.872322
   y      -0.280835       0.285211       0.004376
   z      46.065991     -46.347501      -0.281510
 
   | dipole moment | =     0.9166 a.u. =     2.3298 debye 
 
 ------------------------------------------------------------------------------
                     quadrupole moment
 ------------------------------------------------------------------------------
  xx     160.177724    -187.415774     -27.238050
  yy     180.204909    -201.997407     -21.792498
  zz      67.423490     -96.728911     -29.305421
  xy      -0.188259       0.209646       0.021387
  xz      49.415024     -49.860310      -0.445287
  yz       0.370304      -0.329157       0.041147
 
     1/3  trace=     -26.111990
     anisotropy=       6.766633
 
 ==============================================================================
 


    ------------------------------------------------------------------------
         total  cpu-time : 53 minutes and 17 seconds
         total wall-time :  6 minutes and 44 seconds
    ------------------------------------------------------------------------

   ****  dscf : all done  ****


    2019-04-02 14:03:45.998 

