           Doing BLAS/Lapack in the master proc. with  8 CPUs.
           SMPCPUS    set: Shared-memory Parallelization with   8 CPUs.

           SMP Parallelization Reference:
           C. van Wullen, J. Comput. Chem. 32 (2011) 1195--1201
 operating system is UNIX !

 ridft (c-18-81.gp.local) : TURBOMOLE V7.2 ( 21454 ) 4 Oct 2017 at 12:48:15
 Copyright (C) 2017 TURBOMOLE GmbH, Karlsruhe


    2018-04-24 21:20:16.372 



                                  r i d f t

                        DFT program with RI approximation 
                                for coulomb part 




                                                 
                                 References:     
                                                 
          TURBOMOLE:                             
              R. Ahlrichs, M. Baer, M. Haeser, H. Horn, and
              C. Koelmel
              Electronic structure calculations on workstation
              computers: the program system TURBOMOLE
              Chem. Phys. Lett. 162: 165 (1989)
          Density Functional:                              
              O. Treutler and R. Ahlrichs                      
              Efficient Molecular Numerical Integration Schemes
              J. Chem. Phys. 102: 346 (1995)                   
          Parallel Version:                                
              Performance of parallel TURBOMOLE for Density    
              Functional Calculations                          
              M. v. Arnim and R. Ahlrichs                      
              J. Comp. Chem. 19: 1746 (1998)                   
          RI-J Method:                                     
              Auxiliary Basis Sets to approximate Coulomb      
              Potentials                                       
              Chem. Phys. Lett. 240: 283 (1995)                
              K. Eichkorn, O. Treutler, H. Oehm, M. Haeser     
              and R. Ahlrichs                                  
              Chem. Phys. Lett. 242: 652 (1995)                
                                                           
              Auxiliary Basis Sets for Main Row Atoms and their
              Use to approximate Coulomb Potentials            
              K. Eichkorn, F. Weigend, O. Treutler and         
              R. Ahlrichs                                      
              Theo. Chem. Acc. 97: 119 (1997)                   
                                                           
              Accurate Coulomb-fitting basis sets for H to Rn 
              F. Weigend                                        
              Phys. Chem. Chem. Phys. 8: 1057 (2006)            
                                                           
          Multipole accelerated RI-J (MARI-J):             
              Fast evaluation of the Coulomb potential for     
              electron densities using multipole accelerated   
              resolution of identity approximation             
              M. Sierka, A. Hogekamp and R. Ahlrichs           
              J. Chem. Phys. 118: 9136 (2003)                  
          RI-JK Method:                                     
              A fully direct RI-HF algorithm: Implementation,
              optimised auxiliary basis sets, demonstration of
              accuracy and efficiency                         
              F. Weigend                                      
              Phys. Chem. Chem. Phys. 4: 4285 (2002)           
          Two-component HF and DFT with spin-orbit coupling:  
              Self-consistent treatment of spin-orbit         
              interactions with efficient Hartree-Fock and    
              density functional methods                      
              M. K. Armbruster, F. Weigend, C. van Wüllen and 
              W. Klopper                                      
              Phys. Chem. Chem. Phys. 10: 1748 (2008)         
          Relativistic all-electron 2c calculations           
              An efficient implementation of two-component    
              relativistic exact-decoupling methods for large 
              molecules                                       
              D. Peng, N. Middendorf, F. Weigend, M. Reiher   
              J. Chem. Phys. 138, 184105 (2013)               
                                         




              +--------------------------------------------------+
              |      general information about current run       |
              +--------------------------------------------------+

 

 DENSITY CONVERGENCE CHECK SWITCHED ON !
 SCF CONVERGENCE IF RMS(delta[D]) <     0.1000000000E-06

 TPSS meta-GGA functional
 exchange:    LDA + TPSS
 correlation: LDA (PW) + TPSS
 A DFT calculation using the RI-J approximation will be carried out.
 Allocatable memory for RI due to $ricore (MB):                   500


              +--------------------------------------------------+
              | Atomic coordinate, charge and isotop information |
              +--------------------------------------------------+

                    atomic coordinates            atom    charge  isotop
          1.82184790    1.65368669    0.71434225    c      6.000     0
          3.13662339    3.21240370    0.84289774    h      1.000     0
          2.70430597   -0.78070905    0.22486138    c      6.000     0
          4.70451956   -1.10966451   -0.03214918    h      1.000     0
          1.00935500   -2.79233284    0.08015756    c      6.000     0
          1.69501119   -4.68158557   -0.28726103    h      1.000     0
         -1.56909029   -2.36896840    0.41735756    c      6.000     0
         -2.88326856   -3.92992049    0.31013532    h      1.000     0
         -2.45208435    0.06503041    0.90752704    c      6.000     0
         -4.44916378    0.39309349    1.18780806    h      1.000     0
         -0.75673155    2.07828152    1.06127278    c      6.000     0
         -1.43705195    3.95664962    1.48297577    h      1.000     0
         -0.22649344    1.00984960    8.23935934    c      6.000     0
         -1.11124355    2.99301631    7.52266108    o      8.000     0
          0.53546790   -0.83747725    6.65334005    o      8.000     0
          0.21666199   -0.22158983    4.94993098    h      1.000     0
          0.17026268    0.25965273   10.94432427    c      6.000     0
         -0.41548845    1.78907722   12.17262525    h      1.000     0
         -0.91837212   -1.43472103   11.35430246    h      1.000     0
          2.15163566   -0.18657225   11.25616420    h      1.000     0
 
       center of nuclear mass  :    0.00743792    0.15735220    3.92068363
       center of nuclear charge:    0.01896126    0.13214090    3.94838718

              +--------------------------------------------------+
              |               basis set information              |
              +--------------------------------------------------+

              we will work with the 1s 3p 5d 7f 9g ... basis set
              ...i.e. with spherical basis functions...

   type   atoms  prim   cont   basis
   ---------------------------------------------------------------------------
    c        8     50     30   cc-pVTZ   [4s3p2d1f|18s5p2d1f]
    h       10     16     14   cc-pVTZ   [3s2p1d|5s2p1d]
    o        2     50     30   cc-pVTZ   [4s3p2d1f|18s5p2d1f]
   ---------------------------------------------------------------------------
   total:   20    660    440
   ---------------------------------------------------------------------------

   total number of primitive shells          :   60
   total number of contracted shells         :  160
   total number of cartesian basis functions :  500
   total number of SCF-basis functions       :  440


 integral neglect threshold       :  0.67E-13
 integral storage threshold THIZE :  0.10E-04
 integral storage threshold THIME :         5

 RI-J AUXILIARY BASIS SET information:

              we will work with the 1s 3p 5d 7f 9g ... basis set
              ...i.e. with spherical basis functions...

   type   atoms  prim   cont   basis
   ---------------------------------------------------------------------------
    c        8     70     49   cc-pVTZ   [6s4p3d1f1g|12s5p4d2f1g]
    h       10     16     11   cc-pVTZ   [3s1p1d|5s2p1d]
    o        2     70     49   cc-pVTZ   [6s4p3d1f1g|12s5p4d2f1g]
   ---------------------------------------------------------------------------
   total:   20    860    600
   ---------------------------------------------------------------------------

   total number of primitive shells          :   56
   total number of contracted shells         :  200
   total number of cartesian basis functions :  730
   total number of SCF-basis functions       :  600


 symmetry group of the molecule :   c1 

 the group has the following generators :
   c1(z)

    1 symmetry operations found

 there are 1 real representations :   a   

 maximum number of shells which are related by symmetry :  1


    mo occupation :
   irrep   mo's   occupied
    a      440       37
 
 number of basis functions   :                    440
 number of occupied orbitals :                     37
 
  
           ------------------
           density functional
           ------------------
 TPSS meta-GGA functional
 exchange:    LDA + TPSS
 correlation: LDA (PW) + TPSS

 iterations will be done with small grid
  
 spherical integration : Lebedev's spherical grid
 spherical gridsize    :                     5
    i.e. gridpoints    :                   590
 value for diffuse not defined
 radial integration    : Chebyshev 2nd kind (scaling 3)
 radial gridsize       :                     8
 integration cells     :                    20
 partition function    : becke
 partition sharpness   :                     3
  

 biggest AO integral is expected to be     4.866064444
  
           ------------------------
               RI-J - INFORMATION
           ------------------------
 Contributions to RI integral batches: 
  neglected integral batches:                  2460
  direct contribution:                          730
  memory contribution:                  9690
 Memory core needed for (P|Q) and Cholesky      3 MByte
 Memory core minimum needed except of (P|Q)     1 MByte
 Total minimum memory core needed (sum)         4 MByte
  
 ****************************************
 Memory allocated for RI-J   457 MByte
 ****************************************
                                            

          ------------------------
          nuclear repulsion energy  :   488.722042919    
          ------------------------


         -----------------
         -S,T+V- integrals
         -----------------

 1e-integrals will be neglected if expon. factor < 0.668392E-14
 Difference densities >>NOT<< switched on in parallel ridft!

 DIIS switched on: error vector is FDS-SDF
 Max. Iterations for DIIS is     :   4
 DIIS matrix (see manual) 
    Scaling factor of diagonals  :  1.200
    threshold for scaling factor :  0.000

 scf convergence criterion : increment of total energy < .1000000D-08
                  and increment of one-electron energy < .1000000D-05

  MOs are in ASCII format !


 automatic virtual orbital shift switched on 
      shift if e(lumo)-e(homo) < 0.10000000    


 reading orbital data $scfmo  from file mos
 orbital characterization : expanded
 mo provided and orthogonalized by Cholesky decomposition

 DSCF restart information will be dumped onto file mos


 Starting SCF iterations

          Overall gridpoints after grid construction =         96529

 ITERATION  ENERGY          1e-ENERGY        2e-ENERGY     RMS[dD(SAO)]   TOL
   1  -459.77201332595    -1580.6353658     632.14130959    0.000D+00 0.667D-13
                            Exc = -63.4057096945     Coul =  695.547019282    
                              N = 73.999949120    
                            current damping = 0.700
 
          max. resid. norm for Fia-block=  3.801D-01 for orbital     26a         
          max. resid. fock norm         =  5.064D+00 for orbital    416a         

 ITERATION  ENERGY          1e-ENERGY        2e-ENERGY     RMS[dD(SAO)]   TOL
   2  -461.25915130343    -1589.7916958     639.81050153    0.288D-02 0.667D-13
                            Exc = -63.8980685505     Coul =  703.708570085    
                              N = 73.999958627    
                            current damping = 0.650
 
          Norm of current diis error:  2.5959    
          max. resid. norm for Fia-block=  1.626D-01 for orbital      2a         
          max. resid. fock norm         =  3.262D-01 for orbital    438a         

 ITERATION  ENERGY          1e-ENERGY        2e-ENERGY     RMS[dD(SAO)]   TOL
   3  -461.49387955818    -1593.0911028     642.87518032    0.169D-02 0.667D-13
                            Exc = -64.3056151882     Coul =  707.180795511    
                              N = 73.999964675    
                            current damping = 0.550
 
          Norm of current diis error:  1.2585    
          max. resid. norm for Fia-block=  6.344D-02 for orbital      2a         
          max. resid. fock norm         =  6.655D-02 for orbital      2a         

 ITERATION  ENERGY          1e-ENERGY        2e-ENERGY     RMS[dD(SAO)]   TOL
   4  -461.56528831948    -1593.6300513     643.34272002    0.110D-02 0.667D-13
                            Exc = -64.3348252967     Coul =  707.677545317    
                              N = 73.999971019    
                            current damping = 0.400
 
          Norm of current diis error: 0.50156    
          max. resid. norm for Fia-block=  3.476D-02 for orbital     12a         
          max. resid. fock norm         =  6.266D-02 for orbital    438a         

 ITERATION  ENERGY          1e-ENERGY        2e-ENERGY     RMS[dD(SAO)]   TOL
   5  -461.57366920724    -1594.9369281     644.64121601    0.480D-03 0.667D-13
                            Exc = -64.4972672876     Coul =  709.138483296    
                              N = 73.999972958    
                            current damping = 0.300
 
          Norm of current diis error: 0.31661    
          max. resid. norm for Fia-block=  1.718D-02 for orbital     37a         
          max. resid. fock norm         =  2.136D-02 for orbital     34a         
          mo-orthogonalization: Cholesky decomposition

 ITERATION  ENERGY          1e-ENERGY        2e-ENERGY     RMS[dD(SAO)]   TOL
   6  -461.57784217139    -1594.8596346     644.55974951    0.367D-03 0.667D-13
                            Exc = -64.4765501738     Coul =  709.036299682    
                              N = 73.999975324    
                            current damping = 0.350
 
          Norm of current diis error: 0.16373    
          max. resid. norm for Fia-block=  8.357D-03 for orbital     34a         
          max. resid. fock norm         =  1.274D-02 for orbital    424a         

 ITERATION  ENERGY          1e-ENERGY        2e-ENERGY     RMS[dD(SAO)]   TOL
   7  -461.57895917638    -1594.7094429     644.40844082    0.121D-03 0.667D-13
                            Exc = -64.4661119259     Coul =  708.874552742    
                              N = 73.999975378    
                            current damping = 0.200
 
          Norm of current diis error: 0.61110E-01
          max. resid. norm for Fia-block=  2.839D-03 for orbital     19a         
          max. resid. fock norm         =  3.808D-03 for orbital     19a         

 ITERATION  ENERGY          1e-ENERGY        2e-ENERGY     RMS[dD(SAO)]   TOL
   8  -461.57909631447    -1594.8360268     644.53488757    0.417D-04 0.667D-13
                            Exc = -64.4808352079     Coul =  709.015722780    
                              N = 73.999975434    
                            current damping = 0.250
 
          Norm of current diis error: 0.20546E-01
          max. resid. norm for Fia-block=  6.872D-04 for orbital     19a         
          max. resid. fock norm         =  1.094D-03 for orbital    437a         

 ITERATION  ENERGY          1e-ENERGY        2e-ENERGY     RMS[dD(SAO)]   TOL
   9  -461.57910777898    -1594.8586360     644.55748530    0.167D-04 0.667D-13
                            Exc = -64.4816095412     Coul =  709.039094846    
                              N = 73.999975416    
                            current damping = 0.100
 
          Norm of current diis error: 0.11539E-01
          max. resid. norm for Fia-block=  3.703D-04 for orbital     35a         
          max. resid. fock norm         =  7.051D-04 for orbital    437a         

 ITERATION  ENERGY          1e-ENERGY        2e-ENERGY     RMS[dD(SAO)]   TOL
  10  -461.57911184201    -1594.8299873     644.52883254    0.115D-04 0.667D-13
                            Exc = -64.4791649523     Coul =  709.007997494    
                              N = 73.999975466    
                            current damping = 0.150
 
          Norm of current diis error: 0.64376E-02
          max. resid. norm for Fia-block=  1.600D-04 for orbital     35a         
          max. resid. fock norm         =  3.088D-04 for orbital    437a         
          mo-orthogonalization: Cholesky decomposition

 ITERATION  ENERGY          1e-ENERGY        2e-ENERGY     RMS[dD(SAO)]   TOL
  11  -461.57911344593    -1594.8292319     644.52807551    0.426D-05 0.667D-13
                            Exc = -64.4793076841     Coul =  709.007383190    
                              N = 73.999975455    
                            current damping = 0.050
 
          Norm of current diis error: 0.17818E-02
          max. resid. norm for Fia-block=  5.595D-05 for orbital     19a         
          max. resid. fock norm         =  8.331D-05 for orbital     73a         

 ITERATION  ENERGY          1e-ENERGY        2e-ENERGY     RMS[dD(SAO)]   TOL
  12  -461.57911355561    -1594.8359554     644.53479888    0.166D-05 0.667D-13
                            Exc = -64.4798008973     Coul =  709.014599775    
                              N = 73.999975453    
                            current damping = 0.100
 
          Norm of current diis error: 0.70745E-03
          max. resid. norm for Fia-block=  2.328D-05 for orbital     34a         
          max. resid. fock norm         =  3.175D-05 for orbital     19a         

 ITERATION  ENERGY          1e-ENERGY        2e-ENERGY     RMS[dD(SAO)]   TOL
  13  -461.57911357342    -1594.8335329     644.53237645    0.553D-06 0.667D-13
                            Exc = -64.4796126011     Coul =  709.011989054    
                              N = 73.999975454    
                            current damping = 0.150
 
          Norm of current diis error: 0.23982E-03
          max. resid. norm for Fia-block=  1.540D-05 for orbital     34a         
          max. resid. fock norm         =  2.364D-05 for orbital     34a         

 ITERATION  ENERGY          1e-ENERGY        2e-ENERGY     RMS[dD(SAO)]   TOL
  14  -461.57911357400    -1594.8336278     644.53247133    0.274D-06 0.667D-13
                            Exc = -64.4796219526     Coul =  709.012093284    
                              N = 73.999975455    
                            current damping = 0.200
 
          Norm of current diis error: 0.20047E-03
          max. resid. norm for Fia-block=  8.888D-06 for orbital     34a         
          max. resid. fock norm         =  1.281D-05 for orbital    424a         

 ITERATION  ENERGY          1e-ENERGY        2e-ENERGY     RMS[dD(SAO)]   TOL
  15  -461.57911357580    -1594.8338475     644.53269097    0.166D-06 0.667D-13
                            Exc = -64.4796440485     Coul =  709.012335023    
                              N = 73.999975454    
                            current damping = 0.050
 
          Norm of current diis error: 0.62680E-04
          max. resid. norm for Fia-block=  2.712D-06 for orbital     37a         
          max. resid. fock norm         =  4.089D-06 for orbital    438a         
          mo-orthogonalization: Cholesky decomposition

 DENSITY CONVERGED !


 ITERATION  ENERGY          1e-ENERGY        2e-ENERGY     RMS[dD(SAO)]   TOL
  16  -461.57911357590    -1594.8337284     644.53257192    0.579D-07 0.667D-13
                            Exc = -64.4796276927     Coul =  709.012199608    
                              N = 73.999975454    
                            current damping = 0.100
 
          Norm of current diis error: 0.39176E-04
          max. resid. norm for Fia-block=  1.322D-06 for orbital     37a         
          max. resid. fock norm         =  2.020D-06 for orbital    438a         

 DENSITY CONVERGED !


 ITERATION  ENERGY          1e-ENERGY        2e-ENERGY     RMS[dD(SAO)]   TOL
  17  -461.57911357596    -1594.8337446     644.53258806    0.273D-07 0.667D-13
                            Exc = -64.4796331394     Coul =  709.012221198    
                              N = 73.999975454    
                            current damping = 0.150
 
          Norm of current diis error: 0.14389E-04
          max. resid. norm for Fia-block=  5.250D-07 for orbital     35a         
          max. resid. fock norm         =  1.181D-06 for orbital      6a         

 ENERGY & DENSITY CONVERGED !

          Overall gridpoints after grid construction =        311916

 ITERATION  ENERGY          1e-ENERGY        2e-ENERGY     RMS[dD(SAO)]   TOL
  18  -461.57890077034    -1594.8337614     644.53281774    0.134D-07 0.667D-13
                            Exc = -64.4794204299     Coul =  709.012238169    
                              N = 73.999996317    
                            current damping = 0.050
 
          Norm of current diis error: 0.88130E-05
          max. resid. norm for Fia-block=  1.997D-07 for orbital     35a         
          max. resid. fock norm         =  4.538D-07 for orbital      6a         

 End of SCF iterations

   convergence criteria satisfied after    18 iterations


                  ------------------------------------------ 
                 |  total energy      =   -461.57890077034  |
                  ------------------------------------------ 
                 :  kinetic energy    =    459.13648343478  :
                 :  potential energy  =   -920.71538420512  :
                 :  virial theorem    =      1.99470855940  :
                 :  wavefunction norm =      1.00000000000  :
                  .......................................... 


 <geterg> : there is no data group $energy 


 <skperg> : $end is missing 


 orbitals $scfmo  will be written to file mos

    irrep                 33a         34a         35a         36a         37a   
 eigenvalues H         -0.31282    -0.27304    -0.24028    -0.23940    -0.22463
            eV          -8.5124     -7.4298     -6.5385     -6.5144     -6.1124
 occupation              2.0000      2.0000      2.0000      2.0000      2.0000 

    irrep                 38a         39a         40a         41a         42a   
 eigenvalues H         -0.04307    -0.04237    -0.01693     0.02652     0.04118
            eV          -1.1720     -1.1530     -0.4608      0.7217      1.1206
 
 
 
 
 ==============================================================================
                           electrostatic moments
 ==============================================================================

 reference point for electrostatic moments:    0.00000   0.00000   0.00000

 
              nuc           elec       ->  total
 ------------------------------------------------------------------------------
                          charge      
 ------------------------------------------------------------------------------
          74.000000     -74.000000      -0.000000
 
 ------------------------------------------------------------------------------
                       dipole moment  
 ------------------------------------------------------------------------------
   x       1.403133      -1.160437       0.242696
   y       9.778427     -10.351633      -0.573206
   z     292.180652    -292.278301      -0.097649
 
   | dipole moment | =     0.6301 a.u. =     1.6015 debye 
 
 ------------------------------------------------------------------------------
                     quadrupole moment
 ------------------------------------------------------------------------------
  xx     207.555957    -248.779364     -41.223407
  yy     280.325375    -325.151238     -44.825863
  zz    2381.795113   -2424.322568     -42.527455
  xy     -29.953087      31.775056       1.821969
  xz     -45.046454      46.448131       1.401677
  yz     226.362494    -229.859687      -3.497193
 
     1/3  trace=     -42.858908
     anisotropy=       7.907234
 
 ==============================================================================
 


    ------------------------------------------------------------------------
         total  cpu-time :  6 minutes and 10 seconds
         total wall-time :  46.37 seconds
    ------------------------------------------------------------------------

   ****  ridft : all done  ****


    2018-04-24 21:21:02.729 

