 operating system is UNIX !

 ridft (gplogin2.gp.local) : TURBOMOLE V7.3 ( 22118 ) 1 Jul 2018 at 20:38:15
 Copyright (C) 2018 TURBOMOLE GmbH, Karlsruhe


    2019-02-08 17:20:15.986 



                                  r i d f t

                        DFT program with RI approximation 
                                for coulomb part 




                                                 
                                 References:     
                                                 
          TURBOMOLE:                             
              R. Ahlrichs, M. Baer, M. Haeser, H. Horn, and
              C. Koelmel
              Electronic structure calculations on workstation
              computers: the program system TURBOMOLE
              Chem. Phys. Lett. 162: 165 (1989)
          Density Functional:                              
              O. Treutler and R. Ahlrichs                      
              Efficient Molecular Numerical Integration Schemes
              J. Chem. Phys. 102: 346 (1995)                   
          Parallel Version:                                
              Performance of parallel TURBOMOLE for Density    
              Functional Calculations                          
              M. v. Arnim and R. Ahlrichs                      
              J. Comp. Chem. 19: 1746 (1998)                   
          RI-J Method:                                     
              Auxiliary Basis Sets to approximate Coulomb      
              Potentials                                       
              Chem. Phys. Lett. 240: 283 (1995)                
              K. Eichkorn, O. Treutler, H. Oehm, M. Haeser     
              and R. Ahlrichs                                  
              Chem. Phys. Lett. 242: 652 (1995)                
                                                           
              Auxiliary Basis Sets for Main Row Atoms and their
              Use to approximate Coulomb Potentials            
              K. Eichkorn, F. Weigend, O. Treutler and         
              R. Ahlrichs                                      
              Theo. Chem. Acc. 97: 119 (1997)                   
                                                           
              Accurate Coulomb-fitting basis sets for H to Rn 
              F. Weigend                                        
              Phys. Chem. Chem. Phys. 8: 1057 (2006)            
                                                           
          Multipole accelerated RI-J (MARI-J):             
              Fast evaluation of the Coulomb potential for     
              electron densities using multipole accelerated   
              resolution of identity approximation             
              M. Sierka, A. Hogekamp and R. Ahlrichs           
              J. Chem. Phys. 118: 9136 (2003)                  
          RI-JK Method:                                     
              A fully direct RI-HF algorithm: Implementation,
              optimised auxiliary basis sets, demonstration of
              accuracy and efficiency                         
              F. Weigend                                      
              Phys. Chem. Chem. Phys. 4: 4285 (2002)           
          Two-component HF and DFT with spin-orbit coupling:  
              Self-consistent treatment of spin-orbit         
              interactions with efficient Hartree-Fock and    
              density functional methods                      
              M. K. Armbruster, F. Weigend, C. van Wüllen and 
              W. Klopper                                      
              Phys. Chem. Chem. Phys. 10: 1748 (2008)         
          Two-component difference density and DIIS algorithm 
              Efficient two-component self-consistent field   
              procedures and gradients: implementation in     
              TURBOMOLE and application to Au20-              
              A. Baldes, F. Weigend                           
              Mol. Phys. 111: 2617 (2013)                     
          Relativistic all-electron 2c calculations           
              An efficient implementation of two-component    
              relativistic exact-decoupling methods for large 
              molecules                                       
              D. Peng, N. Middendorf, F. Weigend, M. Reiher   
              J. Chem. Phys. 138: 184105 (2013)               
          Finite nucleus model and SNSO approximation         
              Efficient implementation of one- and two-       
              component analytical energy gradients in exact  
              two-component theory                            
              Y. J. Franzke, N. Middendorf, F. Weigend        
              J. Chem. Phys. 148: 104110 (2018)               
                                         




              +--------------------------------------------------+
              |      general information about current run       |
              +--------------------------------------------------+

 
no calculation of wave function, analysis of properties only

 DENSITY CONVERGENCE CHECK SWITCHED ON !
 SCF CONVERGENCE IF RMS(delta[D]) <     0.1000000000E-06

 PBE functional
 exchange:    LDA + PBE
 correlation: LDA (PW) + PBE
 A DFT calculation using the RI-J approximation will be carried out.
 Allocatable memory for RI due to $ricore (MB):                 90000


              +--------------------------------------------------+
              | Atomic coordinate, charge and isotop information |
              +--------------------------------------------------+

                    atomic coordinates            atom    charge  isotop
          1.47400130   12.97840855   10.46321877    c      6.000     0
         -1.42194711  -12.95236318   10.50711918    c      6.000     0
         -3.51827852   -8.71488287   10.67272269    c      6.000     0
          1.22919144   -9.05957629   10.95273739    c      6.000     0
          3.57308963    8.74214504   10.61880143    c      6.000     0
         -1.17165289    9.08563621   10.94293406    c      6.000     0
         -1.17288083  -10.16974409    9.71264374    c      6.000     0
          1.21820004   10.19389350    9.67760254    c      6.000     0
         -0.01577677   -0.00081710   -0.61100156    c      6.000     0
          0.15429197    4.37565313   -0.69054108    c      6.000     0
         -0.19402613   -4.37709458   -0.67856040    c      6.000     0
         -0.55929318   -7.03123591    3.21036313    c      6.000     0
          0.54805534    7.03986009    3.18853604    c      6.000     0
         -0.31877961   -4.55516328    2.04416646    c      6.000     0
          0.30345127    4.56044964    2.03044875    c      6.000     0
          0.58076877    9.15982629    1.54879573    c      6.000     0
         -0.61478594   -9.15470964    1.57576987    c      6.000     0
          0.99711247    9.87365787    6.81274844    c      6.000     0
         -0.97953426   -9.85618032    6.84504121    c      6.000     0
         -0.00403023    0.00250863    2.11154219    c      6.000     0
         -0.74392528   -7.43475782    5.81861435    c      6.000     0
          0.75850110    7.44933785    5.79386139    c      6.000     0
          0.34070212    8.73142991   -1.10144086    c      6.000     0
         -0.39861827   -8.73309227   -1.07762389    c      6.000     0
         -0.17910655   -2.31709543    3.38716175    c      6.000     0
          0.18085094    2.32528402    3.37988952    c      6.000     0
          1.02479054   11.95094915    5.14064543    c      6.000     0
         -1.03036373  -11.93691487    5.17780973    c      6.000     0
          0.81990586   11.60622568    2.55789493    c      6.000     0
         -0.85134166  -11.59820735    2.59240284    c      6.000     0
          0.02193858    2.18166975   -1.94927934    n      7.000     0
         -0.06672775   -2.18648606   -1.94364909    n      7.000     0
          0.13355147    6.51560640   -2.18085243    n      7.000     0
         -0.19352271   -6.52056992   -2.16406656    n      7.000     0
         -0.71180296   -5.82922647    7.09345346    h      1.000     0
          0.74579439    5.84626805    7.07218421    h      1.000     0
          1.20982307   13.85044838    5.88201126    h      1.000     0
         -1.21256395  -13.83432520    5.92511799    h      1.000     0
         -0.20128702   -2.31305349    5.43959803    h      1.000     0
          0.22184874    2.32620338    5.43205972    h      1.000     0
          0.84152149   13.22104769    1.28896670    h      1.000     0
         -0.89126969  -13.21558200    1.32720077    h      1.000     0
         -0.39306323  -10.36850454   -2.33336202    h      1.000     0
          0.31715197   10.36393541   -2.36071770    h      1.000     0
         -1.55225091  -13.06116624   12.56760513    h      1.000     0
          1.62652034   13.09185297   12.52191892    h      1.000     0
         -1.39328016    7.07229742   10.52134693    h      1.000     0
          3.44669246    6.72205728   10.19043378    h      1.000     0
         -3.39522541   -6.69602570   10.23763233    h      1.000     0
          1.44796069   -7.04728951   10.52466264    h      1.000     0
         -3.12774186  -13.82428811    9.72380578    h      1.000     0
          0.22085682  -14.06739060    9.92284383    h      1.000     0
          3.17055302   13.84961217    9.65934363    h      1.000     0
         -0.17576722   14.09116736    9.89447375    h      1.000     0
          5.29559352    9.48212419    9.74469141    h      1.000     0
         -2.87285749   10.07196214   10.30104757    h      1.000     0
         -5.24932510   -9.45656504    9.81712783    h      1.000     0
          2.92380070  -10.04822525   10.29713433    h      1.000     0
         -3.66821506   -8.91595502   12.72633173    h      1.000     0
          1.10891264   -9.26470625   13.00791869    h      1.000     0
         -1.03209869    9.29552243   12.99640534    h      1.000     0
          3.74274055    8.94867302   12.67033744    h      1.000     0
         -0.84814141    4.47218903   -8.79567114    c      6.000     0
          0.81896534   -4.49550028   -8.78139520    c      6.000     0
         -1.49614268    7.45629374  -11.46780436    c      6.000     0
          1.48658442   -7.48375389  -11.44404956    c      6.000     0
         -1.49589040    8.57397075   -9.03489232    c      6.000     0
          1.46332170   -8.59858308   -9.00995191    c      6.000     0
         -1.09024651    6.59284858   -7.35621345    n      7.000     0
          1.04432085   -6.61494436   -7.33756960    n      7.000     0
         -0.40861417    2.14786198   -7.64611350    n      7.000     0
          0.37367406   -2.16880994   -7.63903931    n      7.000     0
         -0.01304932   -0.01188409   -8.97979585    c      6.000     0
          2.21135033  -12.64119086  -10.79833241    c      6.000     0
         -2.23118529   12.61383352  -10.83481508    c      6.000     0
         -2.23663621   11.52605367  -13.25999341    c      6.000     0
          2.23878575  -11.55643552  -13.22470920    c      6.000     0
          1.88149259   -8.97457527  -13.58563518    c      6.000     0
         -1.87400759    8.94403752  -13.61459920    c      6.000     0
         -1.86355778   11.15545835   -8.67229111    c      6.000     0
          1.82519046  -11.18001115   -8.64096946    c      6.000     0
         -0.00471790   -0.01434527  -11.46794496    n      7.000     0
         -1.08398585    4.86113095  -11.25197458    n      7.000     0
          1.07543501   -4.88799923  -11.23503527    n      7.000     0
         -0.36777719    1.70183559  -12.33223067    h      1.000     0
          0.36616561   -1.73163786  -12.32642127    h      1.000     0
          0.23428446   -2.11911298   -5.68423120    h      1.000     0
         -0.27995443    2.10225325   -5.69047297    h      1.000     0
         -0.72184931    6.65146467   -5.42799265    h      1.000     0
          0.66821320   -6.66976078   -5.41114839    h      1.000     0
         -2.53368812   12.73388196  -14.89121729    h      1.000     0
          2.54856119  -12.76661878  -14.85179836    h      1.000     0
          2.50261420  -14.66226770  -10.60136625    h      1.000     0
         -2.52416371   14.63517378  -10.64298104    h      1.000     0
          1.90756117   -8.13960167  -15.45831900    h      1.000     0
         -1.88305295    8.10667096  -15.48639618    h      1.000     0
          1.82476452  -12.02599826   -6.77114725    h      1.000     0
         -1.88145708   12.00355345   -6.80351127    h      1.000     0
 
       center of nuclear mass  :   -0.00506648   -0.00190763   -1.53498126
       center of nuclear charge:   -0.00440903   -0.00166467   -1.33864637

              +--------------------------------------------------+
              |               basis set information              |
              +--------------------------------------------------+

              we will work with the 1s 3p 5d 7f 9g ... basis set
              ...i.e. with spherical basis functions...

   type   atoms  prim   cont   basis
   ---------------------------------------------------------------------------
    c       45     50     30   cc-pVTZ   [4s3p2d1f|18s5p2d1f]
    n       11     50     30   cc-pVTZ   [4s3p2d1f|18s5p2d1f]
    h       42     16     14   cc-pVTZ   [3s2p1d|5s2p1d]
   ---------------------------------------------------------------------------
   total:   98   3472   2268
   ---------------------------------------------------------------------------

   total number of primitive shells          :   60
   total number of contracted shells         :  812
   total number of cartesian basis functions : 2590
   total number of SCF-basis functions       : 2268


 integral neglect threshold       :  0.13E-13
 integral storage threshold THIZE :  0.10E-04
 integral storage threshold THIME :         5

 RI-J AUXILIARY BASIS SET information:

              we will work with the 1s 3p 5d 7f 9g ... basis set
              ...i.e. with spherical basis functions...

   type   atoms  prim   cont   basis
   ---------------------------------------------------------------------------
    c       45     70     49   cc-pVTZ   [6s4p3d1f1g|12s5p4d2f1g]
    n       11     70     49   cc-pVTZ   [6s4p3d1f1g|12s5p4d2f1g]
    h       42     16     11   cc-pVTZ   [3s1p1d|5s2p1d]
   ---------------------------------------------------------------------------
   total:   98   4592   3206
   ---------------------------------------------------------------------------

   total number of primitive shells          :   56
   total number of contracted shells         : 1050
   total number of cartesian basis functions : 3920
   total number of SCF-basis functions       : 3206


 symmetry group of the molecule :   c1 

 the group has the following generators :
   c1(z)

    1 symmetry operations found

 there are 1 real representations :   a   

 maximum number of shells which are related by symmetry :  1


    mo occupation :
   irrep   mo's   occupied
    a     2268      194
 
 number of basis functions   :                   2268
 number of occupied orbitals :                    194
 
  
           ------------------
           density functional
           ------------------
 PBE functional
 exchange:    LDA + PBE
 correlation: LDA (PW) + PBE

 iterations will be done with small grid
  
 spherical integration : Lebedev's spherical grid
 spherical gridsize    :                     5
    i.e. gridpoints    :                   590
 value for diffuse not defined
 radial integration    : Chebyshev 2nd kind (scaling 3)
 radial gridsize       :                     8
 integration cells     :                    98
 partition function    : becke
 partition sharpness   :                     3
  

 biggest AO integral is expected to be     4.229423036
  
           ------------------------
               RI-J - INFORMATION
           ------------------------
 Contributions to RI integral batches: 
  neglected integral batches:                225544
  direct contribution:                            0
  memory contribution:                104534
 Memory core needed for (P|Q) and Cholesky     79 MByte
 Memory core minimum needed except of (P|Q)    12 MByte
 Total minimum memory core needed (sum)        90 MByte
  
 ****************************************
 Memory allocated for RI-J 28915 MByte
 ****************************************
                                            

          ------------------------
          nuclear repulsion energy  :   7013.07501155    
          ------------------------


         -----------------
         -S,T+V- integrals
         -----------------

 1e-integrals will be neglected if expon. factor < 0.129033E-14
 
   Difference densities algorithm switched on.
   The maximal number of linear combinations of
   difference densities is                    20 .

 DIIS switched on: error vector is FDS-SDF
 Max. Iterations for DIIS is     :   4
 DIIS matrix (see manual) 
    Scaling factor of diagonals  :  1.200
    threshold for scaling factor :  0.000

 scf convergence criterion : increment of total energy < .1000000D-08
                  and increment of one-electron energy < .1000000D-05

  MOs are in ASCII format !


 automatic virtual orbital shift switched on 
      shift if e(lumo)-e(homo) < 0.10000000    


 reading orbital data $scfmo  from file mos
 orbital characterization : scfconv=9
 
 
 
 ==============================================================================
                           electrostatic moments
 ==============================================================================

 reference point for electrostatic moments:    0.00000   0.00000   0.00000

 
              nuc           elec       ->  total
 ------------------------------------------------------------------------------
                          charge      
 ------------------------------------------------------------------------------
         389.000000    -388.000000       1.000000
 
 ------------------------------------------------------------------------------
                       dipole moment  
 ------------------------------------------------------------------------------
   x      -1.715111       1.716672       0.001561
   y      -0.647558       0.650582       0.003024
   z    -520.733437     523.998028       3.264591
 
   | dipole moment | =     3.2646 a.u. =     8.2978 debye 
 
 ------------------------------------------------------------------------------
                     quadrupole moment
 ------------------------------------------------------------------------------
  xx     761.564849   -1008.548689    -246.983840
  yy   27148.907249  -27282.118126    -133.210877
  zz   26072.382975  -26248.272668    -175.889693
  xy    -267.527304     272.184778       4.657474
  xz      33.366013     -33.284497       0.081516
  yz      -9.812619       9.741372      -0.071247
 
     1/3  trace=    -185.361470
     anisotropy=      99.875845



 ==============================================================================
                  MULLIKEN POPULATION ANALYSIS (CAO-BASIS)
 ==============================================================================

         BRUTTO POPULATIONS  
 
       values displayed are larger than   0.010000
 
 
 atomic populations from total density:
 
 atom      charge    n(s)      n(p)      n(d)      n(f)      n(g)
     1c     -0.30531   3.27284   2.95950   0.06920   0.00377
     2c     -0.30532   3.27285   2.95951   0.06920   0.00377
     3c     -0.27337   3.24236   2.95562   0.07171   0.00368
     4c     -0.27311   3.24205   2.95560   0.07178   0.00368
     5c     -0.27350   3.24244   2.95566   0.07172   0.00368
     6c     -0.27305   3.24204   2.95556   0.07177   0.00368
     7c      0.04029   3.19147   2.60497   0.15373   0.00953
     8c      0.04045   3.19145   2.60484   0.15373   0.00953
     9c      0.16876   3.11071   2.51690   0.18681   0.01681
    10c      0.15604   3.12789   2.51036   0.18906   0.01665
    11c      0.15622   3.12772   2.51043   0.18898   0.01665
    12c      0.09208   3.20072   2.59314   0.10299   0.01107
    13c      0.09220   3.20063   2.59316   0.10294   0.01107
    14c     -0.00451   3.23706   2.66306   0.09364   0.01074
    15c     -0.00432   3.23689   2.66306   0.09363   0.01074
    16c      0.04282   3.17486   2.67573   0.09554   0.01105
    17c      0.04254   3.17493   2.67592   0.09556   0.01105
    18c      0.10077   3.16681   2.60569   0.11629   0.01043
    19c      0.10094   3.16676   2.60558   0.11629   0.01043
    20c      0.07305   3.16641   2.65451   0.09493   0.01110
    21c     -0.14460   3.23500   2.81126   0.08978   0.00855
    22c     -0.14432   3.23505   2.81095   0.08977   0.00855
    23c     -0.03992   3.23672   2.65498   0.13700   0.01123
    24c     -0.03976   3.23669   2.65496   0.13688   0.01123
    25c     -0.13516   3.27506   2.76007   0.09142   0.00861
    26c     -0.13518   3.27510   2.76006   0.09141   0.00861
    27c     -0.08154   3.22466   2.76156   0.08699   0.00834
    28c     -0.08160   3.22470   2.76158   0.08698   0.00834
    29c     -0.12794   3.25556   2.77449   0.08949   0.00840
    30c     -0.12778   3.25548   2.77440   0.08950   0.00840
    31n     -0.22326   3.51841   3.63586   0.06445   0.00454
    32n     -0.22325   3.51844   3.63581   0.06444   0.00454
    33n     -0.18942   3.50505   3.61625   0.06368   0.00445
    34n     -0.18972   3.50511   3.61650   0.06366   0.00445
    35h      0.09344   0.86308   0.04060   0.00287
    36h      0.09336   0.86316   0.04061   0.00287
    37h      0.12112   0.83817   0.03794   0.00277
    38h      0.12111   0.83818   0.03794   0.00277
    39h      0.10160   0.85775   0.03787   0.00277
    40h      0.10158   0.85778   0.03787   0.00277
    41h      0.11361   0.84804   0.03567   0.00268
    42h      0.11360   0.84805   0.03568   0.00268
    43h      0.12658   0.84117   0.02952   0.00274
    44h      0.12657   0.84118   0.02951   0.00274
    45h      0.10518   0.85976   0.03263   0.00243
    46h      0.10519   0.85975   0.03263   0.00243
    47h      0.08491   0.87826   0.03442   0.00241
    48h      0.08608   0.87700   0.03451   0.00241
    49h      0.08610   0.87699   0.03449   0.00241
    50h      0.08490   0.87825   0.03444   0.00241
    51h      0.09941   0.86437   0.03385   0.00238
    52h      0.09918   0.86460   0.03385   0.00238
    53h      0.09941   0.86436   0.03385   0.00238
    54h      0.09915   0.86462   0.03385   0.00238
    55h      0.10518   0.85961   0.03285   0.00236
    56h      0.10484   0.85990   0.03289   0.00236
    57h      0.10518   0.85961   0.03285   0.00236
    58h      0.10483   0.85991   0.03289   0.00236
    59h      0.10622   0.85792   0.03346   0.00240
    60h      0.10648   0.85765   0.03347   0.00240
    61h      0.10647   0.85766   0.03347   0.00240
    62h      0.10621   0.85794   0.03345   0.00240
    63c      0.22001   3.09249   2.45089   0.21711   0.01951
    64c      0.21983   3.09247   2.45106   0.21713   0.01951
    65c      0.10530   3.11208   2.63326   0.13507   0.01429
    66c      0.10543   3.11196   2.63323   0.13509   0.01429
    67c      0.06544   3.13447   2.66401   0.12166   0.01442
    68c      0.06531   3.13444   2.66417   0.12165   0.01442
    69n     -0.10899   3.41093   3.62857   0.06483   0.00467
    70n     -0.10872   3.41073   3.62849   0.06482   0.00467
    71n     -0.10067   3.38168   3.66070   0.05392   0.00437
    72n     -0.10063   3.38162   3.66073   0.05392   0.00437
    73c      0.21534   3.08369   2.45274   0.22907   0.01916
    74c     -0.10173   3.21766   2.78629   0.08950   0.00827
    75c     -0.10176   3.21770   2.78628   0.08950   0.00827
    76c     -0.10935   3.22312   2.78795   0.09004   0.00824
    77c     -0.10931   3.22309   2.78794   0.09004   0.00824
    78c     -0.14487   3.24879   2.80585   0.08227   0.00795
    79c     -0.14480   3.24877   2.80580   0.08227   0.00795
    80c     -0.17631   3.23414   2.85290   0.08134   0.00793
    81c     -0.17613   3.23414   2.85272   0.08134   0.00793
    82n     -0.14548   3.43333   3.67742   0.03179   0.00294
    83n     -0.30005   3.56519   3.66566   0.06483   0.00436
    84n     -0.30010   3.56521   3.66568   0.06484   0.00436
    85h      0.16163   0.74965   0.08314   0.00557
    86h      0.16161   0.74963   0.08318   0.00557
    87h      0.16793   0.73502   0.09150   0.00555
    88h      0.16788   0.73511   0.09145   0.00555
    89h      0.15661   0.73534   0.10269   0.00536
    90h      0.15692   0.73508   0.10265   0.00536
    91h      0.11423   0.84907   0.03413   0.00257
    92h      0.11425   0.84906   0.03413   0.00257
    93h      0.11094   0.85211   0.03440   0.00256
    94h      0.11092   0.85212   0.03439   0.00256
    95h      0.10777   0.85589   0.03376   0.00258
    96h      0.10775   0.85591   0.03377   0.00257
    97h      0.08794   0.87403   0.03546   0.00257
    98h      0.08814   0.87384   0.03545   0.00257
 
 moments (from total density versus population analysis)
 <charge> =             1.000000            1.000000
 <x   >   =             0.001561            0.000433
 <y   >   =             0.003024            0.001698
 <z   >   =             3.264591            1.876414
 
 
 ==============================================================================
 


    ------------------------------------------------------------------------
         total  cpu-time :  17.17 seconds
         total wall-time :  17.67 seconds
    ------------------------------------------------------------------------

   ****  ridft : all done  ****


    2019-02-08 17:20:33.631 

