
   OpenMP run-time library returned nthreads = 28
 operating system is UNIX !

 dscf (c-13-38) : TURBOMOLE V7.3 ( 22142 ) 4 Jul 2018 at 18:12:42
 Copyright (C) 2018 TURBOMOLE GmbH, Karlsruhe


    2019-04-01 21:38:53.974 



                             d s c f - program

                   idea & directorship : reinhart ahlrichs
                   program development : marco haeser
                                         michael baer
                           dft version : oliver treutler


                          quantum chemistry group
                          universitaet  karlsruhe
                                  germany




                          References             
                                                 
          TURBOMOLE:                             
              R. Ahlrichs, M. Baer, M. Haeser, H. Horn, and
              C. Koelmel
              Electronic structure calculations on workstation
              computers: the program system TURBOMOLE
              Chem. Phys. Lett. 162: 165 (1989)
          Density Functional:                              
              O. Treutler and R. Ahlrichs                      
              Efficient Molecular Numerical Integration Schemes
              J. Chem. Phys. 102: 346 (1995)                   
          Parallel Version:                                
              Performance of parallel TURBOMOLE for Density    
              Functional Calculations                          
              M. v. Arnim and R. Ahlrichs                      
              J. Comp. Chem. 19: 1746 (1998)                   
                                         




              +--------------------------------------------------+
              | Atomic coordinate, charge and isotop information |
              +--------------------------------------------------+

                    atomic coordinates            atom    charge  isotop
         -1.20685731    0.88990297    0.08422222    n      7.000     0
          0.35896172   -0.21531003   -0.01091053    h      1.000     0
         -2.45753015    0.15355310   -1.15966536    h      1.000     0
         -2.26513690    0.73963612    2.63039786    c      6.000     0
         -3.95470126    1.90719611    2.74608859    h      1.000     0
         -2.76418842   -1.16377587    3.26819100    h      1.000     0
         -0.90758924    1.50927685    3.97047959    h      1.000     0
 
       center of nuclear mass  :   -1.73591551    0.75848779    1.34131668
       center of nuclear charge:   -1.76465944    0.71433765    1.39922922

              +--------------------------------------------------+
              |               basis set information              |
              +--------------------------------------------------+

              we will work with the 1s 3p 5d 7f 9g ... basis set
              ...i.e. with spherical basis functions...

   type   atoms  prim   cont   basis
   ---------------------------------------------------------------------------
    n        1     50     30   cc-pVTZ   [4s3p2d1f|18s5p2d1f]
    h        5     16     14   cc-pVTZ   [3s2p1d|5s2p1d]
    c        1     50     30   cc-pVTZ   [4s3p2d1f|18s5p2d1f]
   ---------------------------------------------------------------------------
   total:    7    180    130
   ---------------------------------------------------------------------------

   total number of primitive shells          :   60
   total number of contracted shells         :   50
   total number of cartesian basis functions :  145
   total number of SCF-basis functions       :  130


 integral neglect threshold       :  0.23E-12
 integral storage threshold THIZE :  0.10E-04
 integral storage threshold THIME :         5


 DENSITY CONVERGENCE CHECK SWITCHED ON !
 SCF CONVERGENCE IF RMS(delta[D]) <     0.1000000000E-06


 symmetry group of the molecule :   c1 

 the group has the following generators :
   c1(z)

    1 symmetry operations found

 there are 1 real representations :   a   

 maximum number of shells which are related by symmetry :  1


    mo occupation :
   irrep   mo's   occupied
    a      130        9
 
 number of basis functions   :                    130
 number of occupied orbitals :                      9
 

 automatic virtual orbital shift switched on 
      shift if e(lumo)-e(homo) < 0.10000000    


          ------------------------
          nuclear repulsion energy  :   42.0921754793    
          ------------------------


         -----------------
         -S,T+V- integrals
         -----------------

 1e-integrals will be neglected if expon. factor < 0.230480E-13
 
   Difference densities algorithm switched on.
   The maximal number of linear combinations of
   difference densities is                    20 .

 DIIS switched on: error vector is FDS-SDF
 Max. Iterations for DIIS is     :   5
 DIIS matrix (see manual) 
    Scaling factor of diagonals  :  1.200
    threshold for scaling factor :  0.000

 scf convergence criterion : increment of total energy < .1000000D-08
                  and increment of one-electron energy < .1000000D-05

  MOs are in ASCII format !


 reading orbital data $scfmo  from file mos
 orbital characterization : scfconv=9

 DSCF restart information will be dumped onto file mos

 
                                              current damping :  0.700
 ITERATION  ENERGY          1e-ENERGY        2e-ENERGY     RMS[dD(SAO)]   TOL
   1  -95.235123417619    -211.77343614     74.446137245    0.000D+00 0.230D-12
          max. resid. norm for Fia-block=  9.314D-02 for orbital      1a         
          max. resid. fock norm         =  1.714D-01 for orbital    129a         
          Delta Eig. =    24.7383035346 eV 
 
                                              current damping :  0.650
 ITERATION  ENERGY          1e-ENERGY        2e-ENERGY     RMS[dD(SAO)]   TOL
   2  -95.249550537701    -211.54235068     74.200624660    0.113D-02 0.146D-12
          Norm of current diis error: 0.25585    
          max. resid. norm for Fia-block=  4.487D-02 for orbital      1a         
          max. resid. fock norm         =  6.179D-02 for orbital    129a         
          Delta Eig. =    11.1412478469 eV 
 
                                              current damping :  0.600
 ITERATION  ENERGY          1e-ENERGY        2e-ENERGY     RMS[dD(SAO)]   TOL
   3  -95.252410788274    -211.60374504     74.259158774    0.572D-03 0.111D-12
          Norm of current diis error: 0.11375    
          max. resid. norm for Fia-block=  1.837D-02 for orbital      1a         
          max. resid. fock norm         =  2.676D-02 for orbital    129a         
          Delta Eig. =     4.3284168673 eV 
 
                                              current damping :  0.650
 ITERATION  ENERGY          1e-ENERGY        2e-ENERGY     RMS[dD(SAO)]   TOL
   4  -95.252991172636    -211.58274022     74.237573564    0.251D-03 0.981D-13
          Norm of current diis error: 0.45296E-01
          max. resid. norm for Fia-block=  7.006D-03 for orbital      1a         
          max. resid. fock norm         =  9.543D-03 for orbital    129a         
          Delta Eig. =     1.6091883129 eV 
 
                                              current damping :  0.500
 ITERATION  ENERGY          1e-ENERGY        2e-ENERGY     RMS[dD(SAO)]   TOL
   5  -95.253082566147    -211.58055110     74.235293054    0.100D-03 0.905D-13
          Norm of current diis error: 0.19158E-01
          max. resid. norm for Fia-block=  2.713D-03 for orbital      1a         
          max. resid. fock norm         =  3.820D-03 for orbital    129a         
 mo-orthogonalization: Cholesky decomposition
          Delta Eig. =     0.6890493802 eV 
 
                                              current damping :  0.350
 ITERATION  ENERGY          1e-ENERGY        2e-ENERGY     RMS[dD(SAO)]   TOL
   6  -95.253100030479    -211.57888489     74.233609384    0.464D-04 0.840D-13
          Norm of current diis error: 0.70775E-02
          max. resid. norm for Fia-block=  8.848D-04 for orbital      7a         
          max. resid. fock norm         =  1.266D-03 for orbital    129a         
          Delta Eig. =     0.2549265230 eV 
 
                                              current damping :  0.200
 ITERATION  ENERGY          1e-ENERGY        2e-ENERGY     RMS[dD(SAO)]   TOL
   7  -95.253102639405    -211.57815304     74.232874919    0.192D-04 0.778D-13
          Norm of current diis error: 0.21928E-02
          max. resid. norm for Fia-block=  2.661D-04 for orbital      7a         
          max. resid. fock norm         =  3.233D-04 for orbital    129a         
          Delta Eig. =     0.0745364096 eV 
 
                                              current damping :  0.050
 ITERATION  ENERGY          1e-ENERGY        2e-ENERGY     RMS[dD(SAO)]   TOL
   8  -95.253102928005    -211.57796639     74.232687980    0.694D-05 0.723D-13
          Norm of current diis error: 0.55695E-03
          max. resid. norm for Fia-block=  6.416D-05 for orbital      7a         
          max. resid. fock norm         =  6.458D-05 for orbital      7a         
          Delta Eig. =     0.0139269623 eV 
 
                                              current damping :  0.050
 ITERATION  ENERGY          1e-ENERGY        2e-ENERGY     RMS[dD(SAO)]   TOL
   9  -95.253102952363    -211.57784268     74.232564252    0.224D-05 0.674D-13
          Norm of current diis error: 0.12079E-03
          max. resid. norm for Fia-block=  1.851D-05 for orbital      9a         
          max. resid. fock norm         =  1.873D-05 for orbital      9a         
          Delta Eig. =     0.0007820593 eV 
 
                                              current damping :  0.100
 ITERATION  ENERGY          1e-ENERGY        2e-ENERGY     RMS[dD(SAO)]   TOL
  10  -95.253102954008    -211.57784439     74.232565960    0.627D-06 0.638D-13
          Norm of current diis error: 0.34618E-04
          max. resid. norm for Fia-block=  6.600D-06 for orbital      9a         
          max. resid. fock norm         =  6.694D-06 for orbital      9a         
 mo-orthogonalization: Cholesky decomposition
          Delta Eig. =     0.0000542686 eV 
 
                                              current damping :  0.150
 ITERATION  ENERGY          1e-ENERGY        2e-ENERGY     RMS[dD(SAO)]   TOL
  11  -95.253102954164    -211.57782697     74.232548533    0.199D-06 0.655D-13
          Norm of current diis error: 0.10708E-04
          max. resid. norm for Fia-block=  2.546D-06 for orbital      9a         
          max. resid. fock norm         =  2.594D-06 for orbital      9a         
          Delta Eig. =     0.0000447577 eV 

 DENSITY CONVERGED !

 
                                              current damping :  0.200
 ITERATION  ENERGY          1e-ENERGY        2e-ENERGY     RMS[dD(SAO)]   TOL
  12  -95.253102954176    -211.57783324     74.232554803    0.624D-07 0.657D-13
          Norm of current diis error: 0.40077E-05
          max. resid. norm for Fia-block=  8.652D-07 for orbital      9a         
          max. resid. fock norm         =  8.804D-07 for orbital      9a         
          Delta Eig. =     0.0000199607 eV 

 ENERGY & DENSITY CONVERGED !

 
                                              current damping :  0.250
 ITERATION  ENERGY          1e-ENERGY        2e-ENERGY     RMS[dD(SAO)]   TOL
  13  -95.253102954178    -211.57783059     74.232552159    0.239D-07 0.655D-13
          max. resid. norm for Fia-block=  2.482D-07 for orbital      9a         
          max. resid. fock norm         =  2.551D-07 for orbital      9a         

 convergence criteria satisfied after    13 iterations


                  ------------------------------------------ 
                 |  total energy      =    -95.25310295418  |
                  ------------------------------------------ 
                 :  kinetic energy    =     95.14130688830  :
                 :  potential energy  =   -190.39440984248  :
                 :  virial theorem    =      1.99882632626  :
                 :  wavefunction norm =      1.00000000000  :
                  .......................................... 


 orbitals $scfmo  will be written to file mos

    irrep                  5a          6a          7a          8a          9a   
 eigenvalues H         -0.65984    -0.60179    -0.55319    -0.51430    -0.39173
            eV         -17.9554    -16.3757    -15.0532    -13.9950    -10.6597
 occupation              2.0000      2.0000      2.0000      2.0000      2.0000 

    irrep                 10a         11a         12a         13a         14a   
 eigenvalues H          0.13916     0.17849     0.19862     0.22347     0.24243
            eV           3.7867      4.8570      5.4046      6.0809      6.5968
 
 
 
 
 ==============================================================================
                           electrostatic moments
 ==============================================================================

 reference point for electrostatic moments:    0.00000   0.00000   0.00000

 
              nuc           elec       ->  total
 ------------------------------------------------------------------------------
                          charge      
 ------------------------------------------------------------------------------
          18.000000     -18.000000       0.000000
 
 ------------------------------------------------------------------------------
                       dipole moment  
 ------------------------------------------------------------------------------
   x     -31.763870      31.654152      -0.109718
   y      12.858078     -13.394094      -0.536016
   z      25.186126     -25.086051       0.100075
 
   | dipole moment | =     0.5562 a.u. =     1.4137 debye 
 
 ------------------------------------------------------------------------------
                     quadrupole moment
 ------------------------------------------------------------------------------
  xx      71.253029     -80.525289      -9.272260
  yy      16.165486     -28.079940     -11.914454
  zz      76.895337     -86.839358      -9.944021
  xy     -23.720112      23.799676       0.079564
  xz     -57.112201      57.309501       0.197300
  yz      19.448590     -18.784077       0.664513
 
     1/3  trace=     -10.376912
     anisotropy=       2.667965
 
 ==============================================================================
 


    ------------------------------------------------------------------------
         total  cpu-time :  2 minutes and 25 seconds
         total wall-time :   7.55 seconds
    ------------------------------------------------------------------------

   ****  dscf : all done  ****


    2019-04-01 21:39:01.474 

