STARTING dscf ON 2 PROCESSORS!
RUNNING PROGRAM /beegfs/modfac/apps/TURBOMOLE/7.2.1-official/bin/em64t-unknown-linux-gnu_mpi/dscf_mpi.
PLEASE WAIT UNTIL dscf HAS FINISHED.
Look for the output in slave1.output.
MACHINEFILE is ./hostlist
 this is node-proc. number 1 running on node c-15-34.local
 the total number of node-proc. spawned is   3
  parallel platform: MPP or cluster with fast interconnect

 dscf (c-15-34.local) : TURBOMOLE V7.2 ( 21471 ) 7 Nov 2017 at 16:15:16
 Copyright (C) 2017 TURBOMOLE GmbH, Karlsruhe


    2018-02-14 09:35:54.330 


 SCF run will be profiled !



                             d s c f - program

                   idea & directorship : reinhart ahlrichs
                   program development : marco haeser
                                         michael baer
                           dft version : oliver treutler
           parallelized version : malte v. arnim, gina corongiu, GMD 


                          quantum chemistry group
                          universitaet  karlsruhe
                                  germany




                          References             
                                                 
          TURBOMOLE:                             
              R. Ahlrichs, M. Baer, M. Haeser, H. Horn, and
              C. Koelmel
              Electronic structure calculations on workstation
              computers: the program system TURBOMOLE
              Chem. Phys. Lett. 162: 165 (1989)
          Density Functional:                              
              O. Treutler and R. Ahlrichs                      
              Efficient Molecular Numerical Integration Schemes
              J. Chem. Phys. 102: 346 (1995)                   
          Parallel Version:                                
              Performance of parallel TURBOMOLE for Density    
              Functional Calculations                          
              M. v. Arnim and R. Ahlrichs                      
              J. Comp. Chem. 19: 1746 (1998)                   
                                         




              +--------------------------------------------------+
              | Atomic coordinate, charge and isotop information |
              +--------------------------------------------------+

                    atomic coordinates            atom    charge  isotop
          2.30186531    1.31056323    0.00000000    c      6.000     0
          2.30186531   -1.31056323    0.00000000    c      6.000     0
         -2.30186531   -1.31056323    0.00000000    c      6.000     0
         -2.30186531    1.31056323    0.00000000    c      6.000     0
          0.00000000    2.63574674    0.00000000    c      6.000     0
          0.00000000   -2.63574674    0.00000000    c      6.000     0
          0.00000000    5.33572864    0.00000000    c      6.000     0
          0.00000000   -5.33572864    0.00000000    c      6.000     0
          0.00000000    7.53232554    0.00000000    n      7.000     0
          0.00000000   -7.53232554    0.00000000    n      7.000     0
         -4.06854322   -2.34920594    0.00000000    h      1.000     0
         -4.06854322    2.34920594    0.00000000    h      1.000     0
          4.06854322    2.34920594    0.00000000    h      1.000     0
          4.06854322   -2.34920594    0.00000000    h      1.000     0
 
       center of nuclear mass  :    0.00000000    0.00000000    0.00000000
       center of nuclear charge:    0.00000000    0.00000000    0.00000000

              +--------------------------------------------------+
              |               basis set information              |
              +--------------------------------------------------+

              we will work with the 1s 3p 5d 7f 9g ... basis set
              ...i.e. with spherical basis functions...

   type   atoms  prim   cont   basis
   ---------------------------------------------------------------------------
    c        8     50     30   cc-pVTZ   [4s3p2d1f|18s5p2d1f]
    n        2     50     30   cc-pVTZ   [4s3p2d1f|18s5p2d1f]
    h        4     16     14   cc-pVTZ   [3s2p1d|5s2p1d]
   ---------------------------------------------------------------------------
   total:   14    564    356
   ---------------------------------------------------------------------------

   total number of primitive shells          :   60
   total number of contracted shells         :  124
   total number of cartesian basis functions :  410
   total number of SCF-basis functions       :  356


 integral neglect threshold       :  0.81E-13
 integral storage threshold THIZE :  0.10E-04
 integral storage threshold THIME :         5


 DENSITY CONVERGENCE CHECK SWITCHED ON !
 SCF CONVERGENCE IF RMS(delta[D]) <     0.1000000000E-06


 symmetry group of the molecule :   c1 

 the group has the following generators :
   c1(z)

    1 symmetry operations found

 there are 1 real representations :   a   

 maximum number of shells which are related by symmetry :  1


    mo occupation :
   irrep   mo's   occupied
    a      356       33
 
 number of basis functions   :                    356
 number of occupied orbitals :                     33
 

 automatic virtual orbital shift switched on 
      shift if e(lumo)-e(homo) < 0.10000000    


 keyword $2e-ints_shell_statistics missing in file <control>

 ! One task per shell generated
  No pre-computed optimal task distribution found
  ... using automatic task generation

          ------------------------
          nuclear repulsion energy  :   406.497496023    
          ------------------------


         -----------------
         -S,T+V- integrals
         -----------------

 1e-integrals will be neglected if expon. factor < 0.815113E-14
 
   Difference densities algorithm switched on.
   The maximal number of linear combinations of
   difference densities is                    20 .

 DIIS switched on: error vector is FDS-SDF
 Max. Iterations for DIIS is     :   5
 DIIS matrix (see manual) 
    Scaling factor of diagonals  :  1.200
    threshold for scaling factor :  0.000

 scf convergence criterion : increment of total energy < .1000000D-08
                  and increment of one-electron energy < .1000000D-05

  MOs are in ASCII format !


 reading orbital data $scfmo  from file mos
 orbital characterization : scfconv=9

 DSCF restart information will be dumped onto file mos

 
                                              current damping :  0.300
 ITERATION  ENERGY          1e-ENERGY        2e-ENERGY     RMS[dD(SAO)]   TOL
   1  -414.29399999707    -1364.4289573     543.63746127    0.000D+00 0.813D-13
          max. resid. norm for Fia-block=  3.002D-04 for orbital     31a         
          max. resid. fock norm         =  3.194D-03 for orbital    355a         
          Delta Eig. =     0.1284027929 eV 
 
                                              current damping :  0.250
 ITERATION  ENERGY          1e-ENERGY        2e-ENERGY     RMS[dD(SAO)]   TOL
   2  -414.29400047030    -1364.4309064     543.63940991    0.938D-05 0.516D-13
          Norm of current diis error: 0.92858E-03
          max. resid. norm for Fia-block=  8.464D-05 for orbital     28a         
          max. resid. fock norm         =  7.273D-04 for orbital    355a         
          Delta Eig. =     0.0301397108 eV 
 
                                              current damping :  0.200
 ITERATION  ENERGY          1e-ENERGY        2e-ENERGY     RMS[dD(SAO)]   TOL
   3  -414.29400050969    -1364.4304503     543.63895378    0.310D-05 0.408D-13
          Norm of current diis error: 0.24157E-03
          max. resid. norm for Fia-block=  2.138D-05 for orbital     28a         
          max. resid. fock norm         =  1.459D-04 for orbital    355a         
          Delta Eig. =     0.0065085074 eV 
 
                                              current damping :  0.250
 ITERATION  ENERGY          1e-ENERGY        2e-ENERGY     RMS[dD(SAO)]   TOL
   4  -414.29400051228    -1364.4305721     543.63907557    0.812D-06 0.365D-13
          Norm of current diis error: 0.53580E-04
          max. resid. norm for Fia-block=  4.300D-06 for orbital     30a         
          max. resid. fock norm         =  2.355D-05 for orbital    355a         
          Delta Eig. =     0.0010015512 eV 
 
                                              current damping :  0.300
 ITERATION  ENERGY          1e-ENERGY        2e-ENERGY     RMS[dD(SAO)]   TOL
   5  -414.29400051242    -1364.4305372     543.63904066    0.164D-06 0.342D-13
          Norm of current diis error: 0.20629E-04
          max. resid. norm for Fia-block=  1.645D-06 for orbital     31a         
          max. resid. fock norm         =  5.427D-06 for orbital    355a         
 mo-orthogonalization: Cholesky decomposition
          Delta Eig. =     0.0002073822 eV 

 DENSITY CONVERGED !

 
                                              current damping :  0.350
 ITERATION  ENERGY          1e-ENERGY        2e-ENERGY     RMS[dD(SAO)]   TOL
   6  -414.29400051245    -1364.4305480     543.63905150    0.368D-07 0.331D-13
          Norm of current diis error: 0.79961E-05
          max. resid. norm for Fia-block=  7.259D-07 for orbital     30a         
          max. resid. fock norm         =  1.094D-06 for orbital    355a         
          Delta Eig. =     0.0000443326 eV 

 ENERGY & DENSITY CONVERGED !

 
                                              current damping :  0.400
 ITERATION  ENERGY          1e-ENERGY        2e-ENERGY     RMS[dD(SAO)]   TOL
   7  -414.29400051246    -1364.4305475     543.63905097    0.155D-07 0.314D-13
          max. resid. norm for Fia-block=  4.012D-07 for orbital     31a         
          max. resid. fock norm         =  4.024D-07 for orbital     31a         

 convergence criteria satisfied after     7 iterations


                  ------------------------------------------ 
                 |  total energy      =   -414.29400051246  |
                  ------------------------------------------ 
                 :  kinetic energy    =    413.48285215910  :
                 :  potential energy  =   -827.77685267157  :
                 :  virial theorem    =      1.99804209486  :
                 :  wavefunction norm =      1.00000000000  :
                  .......................................... 


 orbitals $scfmo  will be written to file mos

    irrep                 29a         30a         31a         32a         33a   
 eigenvalues H         -0.48539    -0.48472    -0.48000    -0.39346    -0.37538
            eV         -13.2083    -13.1900    -13.0616    -10.7067    -10.2147
 occupation              2.0000      2.0000      2.0000      2.0000      2.0000 

    irrep                 34a         35a         36a         37a         38a   
 eigenvalues H          0.02405     0.07585     0.11818     0.14434     0.15415
            eV           0.6545      2.0641      3.2159      3.9278      4.1946
 
 
 
 
 ==============================================================================
                           electrostatic moments
 ==============================================================================

 reference point for electrostatic moments:    0.00000   0.00000   0.00000

 
              nuc           elec       ->  total
 ------------------------------------------------------------------------------
                          charge      
 ------------------------------------------------------------------------------
          66.000000     -66.000000      -0.000000
 
 ------------------------------------------------------------------------------
                       dipole moment  
 ------------------------------------------------------------------------------
   x       0.000000       0.000000       0.000000
   y       0.000000      -0.000000      -0.000000
   z       0.000000       0.000000       0.000000
 
   | dipole moment | =     0.0000 a.u. =     0.0000 debye 
 
 ------------------------------------------------------------------------------
                     quadrupole moment
 ------------------------------------------------------------------------------
  xx     193.378189    -228.594138     -35.215949
  yy    1282.605822   -1353.823749     -71.217927
  zz       0.000000     -44.133862     -44.133862
  xy       0.000000       0.000000       0.000000
  xz       0.000000       0.000000       0.000000
  yz       0.000000      -0.000000      -0.000000
 
     1/3  trace=     -50.189246
     anisotropy=      32.474746
 
 ==============================================================================
 

    dscf profiling
  --------------------------------------------------------------------
             module   cpu total (s)       %  wall total (s)       %

          dscf.total           301.8  100.00           302.7  100.00
        dscf.prepare             0.4    0.15             0.5    0.15
      prepare.oneint             0.0    0.01             0.0    0.01
     prepare.moinput             0.2    0.07             0.2    0.07
     moinput_orthmos             0.0    0.01             0.0    0.01
            dscf.scf           301.2   99.80           302.0   99.77
             scf.pre             0.0    0.00             0.0    0.00
        scf.makedmat             0.1    0.02             0.1    0.04
          scf.shloop           296.5   98.25           296.7   98.01
          shloop_omp           296.5   98.25           296.7   98.01
          scf.symcar             0.0    0.00             0.0    0.00
        scf.makefock             0.0    0.01             0.3    0.10
          scf.newerg             0.0    0.00             0.0    0.00
          scf.newcnv             0.1    0.04             0.1    0.04
           scf.fdiag             0.5    0.17             0.5    0.17
         diag_tritrn             0.1    0.03             0.1    0.03
          diag_rdiag             0.4    0.13             0.4    0.13
          scf.modump             3.3    1.10             3.4    1.14
           ortho_all             0.0    0.01             0.0    0.01
            scf.post             0.6    0.19             0.7    0.24
        dscf.postscf             0.1    0.05             0.2    0.08
 


    ------------------------------------------------------------------------
         total  cpu-time :  5 minutes and  2 seconds
         total wall-time :  5 minutes and  4 seconds
    ------------------------------------------------------------------------

   ****  dscf : all done  ****


    2018-02-14 09:40:57.088 

