           Doing BLAS/Lapack in the master proc. with  8 CPUs.
           SMPCPUS    set: Shared-memory Parallelization with   8 CPUs.

           SMP Parallelization Reference:
           C. van Wullen, J. Comput. Chem. 32 (2011) 1195--1201
 operating system is UNIX !

 ridft (c-18-132.gp.local) : TURBOMOLE V7.2 ( 21454 ) 4 Oct 2017 at 12:48:15
 Copyright (C) 2017 TURBOMOLE GmbH, Karlsruhe


    2018-04-24 21:14:39.475 



                                  r i d f t

                        DFT program with RI approximation 
                                for coulomb part 




                                                 
                                 References:     
                                                 
          TURBOMOLE:                             
              R. Ahlrichs, M. Baer, M. Haeser, H. Horn, and
              C. Koelmel
              Electronic structure calculations on workstation
              computers: the program system TURBOMOLE
              Chem. Phys. Lett. 162: 165 (1989)
          Density Functional:                              
              O. Treutler and R. Ahlrichs                      
              Efficient Molecular Numerical Integration Schemes
              J. Chem. Phys. 102: 346 (1995)                   
          Parallel Version:                                
              Performance of parallel TURBOMOLE for Density    
              Functional Calculations                          
              M. v. Arnim and R. Ahlrichs                      
              J. Comp. Chem. 19: 1746 (1998)                   
          RI-J Method:                                     
              Auxiliary Basis Sets to approximate Coulomb      
              Potentials                                       
              Chem. Phys. Lett. 240: 283 (1995)                
              K. Eichkorn, O. Treutler, H. Oehm, M. Haeser     
              and R. Ahlrichs                                  
              Chem. Phys. Lett. 242: 652 (1995)                
                                                           
              Auxiliary Basis Sets for Main Row Atoms and their
              Use to approximate Coulomb Potentials            
              K. Eichkorn, F. Weigend, O. Treutler and         
              R. Ahlrichs                                      
              Theo. Chem. Acc. 97: 119 (1997)                   
                                                           
              Accurate Coulomb-fitting basis sets for H to Rn 
              F. Weigend                                        
              Phys. Chem. Chem. Phys. 8: 1057 (2006)            
                                                           
          Multipole accelerated RI-J (MARI-J):             
              Fast evaluation of the Coulomb potential for     
              electron densities using multipole accelerated   
              resolution of identity approximation             
              M. Sierka, A. Hogekamp and R. Ahlrichs           
              J. Chem. Phys. 118: 9136 (2003)                  
          RI-JK Method:                                     
              A fully direct RI-HF algorithm: Implementation,
              optimised auxiliary basis sets, demonstration of
              accuracy and efficiency                         
              F. Weigend                                      
              Phys. Chem. Chem. Phys. 4: 4285 (2002)           
          Two-component HF and DFT with spin-orbit coupling:  
              Self-consistent treatment of spin-orbit         
              interactions with efficient Hartree-Fock and    
              density functional methods                      
              M. K. Armbruster, F. Weigend, C. van Wüllen and 
              W. Klopper                                      
              Phys. Chem. Chem. Phys. 10: 1748 (2008)         
          Relativistic all-electron 2c calculations           
              An efficient implementation of two-component    
              relativistic exact-decoupling methods for large 
              molecules                                       
              D. Peng, N. Middendorf, F. Weigend, M. Reiher   
              J. Chem. Phys. 138, 184105 (2013)               
                                         




              +--------------------------------------------------+
              |      general information about current run       |
              +--------------------------------------------------+

 

 DENSITY CONVERGENCE CHECK SWITCHED ON !
 SCF CONVERGENCE IF RMS(delta[D]) <     0.1000000000E-06

 PBE functional
 exchange:    LDA + PBE
 correlation: LDA (PW) + PBE
 A DFT calculation using the RI-J approximation will be carried out.
 Allocatable memory for RI due to $ricore (MB):                   500


              +--------------------------------------------------+
              | Atomic coordinate, charge and isotop information |
              +--------------------------------------------------+

                    atomic coordinates            atom    charge  isotop
         -1.90270330   -0.05776555   -0.04681391    c      6.000     0
          0.11150013   -0.11515941   -0.09328750    h      1.000     0
         -4.19281813    0.00599699    0.00491177    c      6.000     0
         -6.19693601    0.06335289    0.05140146    h      1.000     0
          4.27815969   -0.27508754   -0.21820822    o      8.000     0
          5.35597711   -1.38959015    0.72103655    h      1.000     0
          5.35907518    0.38818370   -1.51337389    h      1.000     0
 
       center of nuclear mass  :   -0.00226360   -0.13811914   -0.10976101
       center of nuclear charge:    0.09507356   -0.14852186   -0.11797091

              +--------------------------------------------------+
              |               basis set information              |
              +--------------------------------------------------+

              we will work with the 1s 3p 5d 7f 9g ... basis set
              ...i.e. with spherical basis functions...

   type   atoms  prim   cont   basis
   ---------------------------------------------------------------------------
    c        2     77     57   def2-QZVP   [7s4p3d2f1g|15s8p3d2f1g]
    h        4     33     30   def2-QZVP   [4s3p2d1f|7s3p2d1f]
    o        1     77     57   def2-QZVP   [7s4p3d2f1g|15s8p3d2f1g]
   ---------------------------------------------------------------------------
   total:    7    363    291
   ---------------------------------------------------------------------------

   total number of primitive shells          :   71
   total number of contracted shells         :   91
   total number of cartesian basis functions :  356
   total number of SCF-basis functions       :  291


 integral neglect threshold       :  0.94E-13
 integral storage threshold THIZE :  0.10E-04
 integral storage threshold THIME :         5

 RI-J AUXILIARY BASIS SET information:

              we will work with the 1s 3p 5d 7f 9g ... basis set
              ...i.e. with spherical basis functions...

   type   atoms  prim   cont   basis
   ---------------------------------------------------------------------------
    c        2     70     49   def2-QZVP   [6s4p3d1f1g|12s5p4d2f1g]
    h        4     16     11   def2-QZVP   [3s1p1d|5s2p1d]
    o        1     70     49   def2-QZVP   [6s4p3d1f1g|12s5p4d2f1g]
   ---------------------------------------------------------------------------
   total:    7    274    191
   ---------------------------------------------------------------------------

   total number of primitive shells          :   56
   total number of contracted shells         :   65
   total number of cartesian basis functions :  231
   total number of SCF-basis functions       :  191


 symmetry group of the molecule :   c1 

 the group has the following generators :
   c1(z)

    1 symmetry operations found

 there are 1 real representations :   a   

 maximum number of shells which are related by symmetry :  1


    mo occupation :
   irrep   mo's   occupied
    a      291       12
 
 number of basis functions   :                    291
 number of occupied orbitals :                     12
 
  
           ------------------
           density functional
           ------------------
 PBE functional
 exchange:    LDA + PBE
 correlation: LDA (PW) + PBE

 iterations will be done with small grid
  
 spherical integration : Lebedev's spherical grid
 spherical gridsize    :                     5
    i.e. gridpoints    :                   590
 value for diffuse not defined
 radial integration    : Chebyshev 2nd kind (scaling 3)
 radial gridsize       :                     8
 integration cells     :                     7
 partition function    : becke
 partition sharpness   :                     3
  

 biggest AO integral is expected to be     6.990327543
  
           ------------------------
               RI-J - INFORMATION
           ------------------------
 Contributions to RI integral batches: 
  neglected integral batches:                   796
  direct contribution:                            0
  memory contribution:                  3390
 Memory core needed for (P|Q) and Cholesky      1 MByte
 Memory core minimum needed except of (P|Q)     1 MByte
 Total minimum memory core needed (sum)         1 MByte
  
 ****************************************
 Memory allocated for RI-J    90 MByte
 ****************************************
                                            

          ------------------------
          nuclear repulsion energy  :   53.2979795614    
          ------------------------


         -----------------
         -S,T+V- integrals
         -----------------

 1e-integrals will be neglected if expon. factor < 0.938753E-14
 Difference densities >>NOT<< switched on in parallel ridft!

 DIIS switched on: error vector is FDS-SDF
 Max. Iterations for DIIS is     :   4
 DIIS matrix (see manual) 
    Scaling factor of diagonals  :  1.200
    threshold for scaling factor :  0.000

 scf convergence criterion : increment of total energy < .1000000D-08
                  and increment of one-electron energy < .1000000D-05

  MOs are in ASCII format !


 automatic virtual orbital shift switched on 
      shift if e(lumo)-e(homo) < 0.10000000    


 reading orbital data $scfmo  from file mos
 orbital characterization : expanded
 mo provided and orthogonalized by Cholesky decomposition

 DSCF restart information will be dumped onto file mos


 Starting SCF iterations

          Overall gridpoints after grid construction =         33562

 ITERATION  ENERGY          1e-ENERGY        2e-ENERGY     RMS[dD(SAO)]   TOL
   1  -153.07181335729    -312.17851232     105.80871940    0.000D+00 0.936D-13
                            Exc = -20.4014628920     Coul =  126.210182295    
                              N = 23.999999303    
                            current damping = 0.700
 
          max. resid. norm for Fia-block=  8.725D-01 for orbital      4a         
          max. resid. fock norm         =  6.524D+01 for orbital    253a         

 ITERATION  ENERGY          1e-ENERGY        2e-ENERGY     RMS[dD(SAO)]   TOL
   2  -153.53696193467    -313.04272878     106.20778729    0.366D-02 0.936D-13
                            Exc = -20.4889741775     Coul =  126.696761466    
                              N = 23.999999262    
                            current damping = 0.650
 
          Norm of current diis error:  2.0949    
          max. resid. norm for Fia-block=  1.421D-01 for orbital      1a         
          max. resid. fock norm         =  1.962D-01 for orbital    156a         

 ITERATION  ENERGY          1e-ENERGY        2e-ENERGY     RMS[dD(SAO)]   TOL
   3  -153.61991067858    -313.77982714     106.86193690    0.225D-02 0.936D-13
                            Exc = -20.6090161834     Coul =  127.470953082    
                              N = 23.999999154    
                            current damping = 0.550
 
          Norm of current diis error: 0.95659    
          max. resid. norm for Fia-block=  5.792D-02 for orbital      1a         
          max. resid. fock norm         =  6.056D-02 for orbital      1a         

 ITERATION  ENERGY          1e-ENERGY        2e-ENERGY     RMS[dD(SAO)]   TOL
   4  -153.64414216827    -313.46490163     106.52277990    0.171D-02 0.936D-13
                            Exc = -20.5807174881     Coul =  127.103497388    
                              N = 23.999999076    
                            current damping = 0.600
 
          Norm of current diis error: 0.37465    
          max. resid. norm for Fia-block=  2.514D-02 for orbital      4a         
          max. resid. fock norm         =  3.869D-02 for orbital    163a         

 ITERATION  ENERGY          1e-ENERGY        2e-ENERGY     RMS[dD(SAO)]   TOL
   5  -153.64797849283    -313.85941717     106.91345912    0.661D-03 0.936D-13
                            Exc = -20.6371590657     Coul =  127.550618183    
                              N = 23.999999093    
                            current damping = 0.650
 
          Norm of current diis error: 0.16479    
          max. resid. norm for Fia-block=  8.883D-03 for orbital      9a         
          max. resid. fock norm         =  9.284D-03 for orbital      3a         
          mo-orthogonalization: Cholesky decomposition

 ITERATION  ENERGY          1e-ENERGY        2e-ENERGY     RMS[dD(SAO)]   TOL
   6  -153.64882373821    -313.71941455     106.77261125    0.383D-03 0.936D-13
                            Exc = -20.6225559069     Coul =  127.395167153    
                              N = 23.999999047    
                            current damping = 0.700
 
          Norm of current diis error: 0.66506E-01
          max. resid. norm for Fia-block=  3.775D-03 for orbital      5a         
          max. resid. fock norm         =  6.152D-03 for orbital    289a         

 ITERATION  ENERGY          1e-ENERGY        2e-ENERGY     RMS[dD(SAO)]   TOL
   7  -153.64891317975    -313.72820572     106.78131298    0.135D-03 0.936D-13
                            Exc = -20.6231797258     Coul =  127.404492706    
                              N = 23.999999030    
                            current damping = 0.750
 
          Norm of current diis error: 0.49721E-01
          max. resid. norm for Fia-block=  1.631D-03 for orbital      5a         
          max. resid. fock norm         =  2.765D-03 for orbital    289a         

 ITERATION  ENERGY          1e-ENERGY        2e-ENERGY     RMS[dD(SAO)]   TOL
   8  -153.64897602258    -313.74238661     106.79543103    0.489D-04 0.936D-13
                            Exc = -20.6259578806     Coul =  127.421388908    
                              N = 23.999999032    
                            current damping = 0.600
 
          Norm of current diis error: 0.10010E-01
          max. resid. norm for Fia-block=  5.573D-04 for orbital      5a         
          max. resid. fock norm         =  9.339D-04 for orbital    279a         

 ITERATION  ENERGY          1e-ENERGY        2e-ENERGY     RMS[dD(SAO)]   TOL
   9  -153.64897950857    -313.74530385     106.79834478    0.236D-04 0.936D-13
                            Exc = -20.6266132281     Coul =  127.424958012    
                              N = 23.999999029    
                            current damping = 0.450
 
          Norm of current diis error: 0.35316E-02
          max. resid. norm for Fia-block=  2.506D-04 for orbital      9a         
          max. resid. fock norm         =  2.520D-04 for orbital      9a         

 ITERATION  ENERGY          1e-ENERGY        2e-ENERGY     RMS[dD(SAO)]   TOL
  10  -153.64897990341    -313.74247114     106.79551168    0.130D-04 0.936D-13
                            Exc = -20.6263005895     Coul =  127.421812268    
                              N = 23.999999028    
                            current damping = 0.500
 
          Norm of current diis error: 0.26875E-02
          max. resid. norm for Fia-block=  1.515D-04 for orbital      7a         
          max. resid. fock norm         =  2.296D-04 for orbital    279a         
          mo-orthogonalization: Cholesky decomposition

 ITERATION  ENERGY          1e-ENERGY        2e-ENERGY     RMS[dD(SAO)]   TOL
  11  -153.64898000797    -313.74583087     106.79887130    0.235D-05 0.936D-13
                            Exc = -20.6267193462     Coul =  127.425590651    
                              N = 23.999999028    
                            current damping = 0.550
 
          Norm of current diis error: 0.16714E-02
          max. resid. norm for Fia-block=  5.604D-05 for orbital     11a         
          max. resid. fock norm         =  1.050D-04 for orbital    289a         

 ITERATION  ENERGY          1e-ENERGY        2e-ENERGY     RMS[dD(SAO)]   TOL
  12  -153.64898007582    -313.74510245     106.79814282    0.130D-05 0.936D-13
                            Exc = -20.6266615723     Coul =  127.424804390    
                              N = 23.999999028    
                            current damping = 0.600
 
          Norm of current diis error: 0.24025E-03
          max. resid. norm for Fia-block=  1.220D-05 for orbital      9a         
          max. resid. fock norm         =  1.248D-05 for orbital      9a         

 ITERATION  ENERGY          1e-ENERGY        2e-ENERGY     RMS[dD(SAO)]   TOL
  13  -153.64898007746    -313.74488852     106.79792888    0.501D-06 0.936D-13
                            Exc = -20.6266337140     Coul =  127.424562594    
                              N = 23.999999028    
                            current damping = 0.450
 
          Norm of current diis error: 0.65174E-04
          max. resid. norm for Fia-block=  5.268D-06 for orbital      8a         
          max. resid. fock norm         =  6.048D-06 for orbital      8a         

 ITERATION  ENERGY          1e-ENERGY        2e-ENERGY     RMS[dD(SAO)]   TOL
  14  -153.64898007758    -313.74495752     106.79799789    0.161D-06 0.936D-13
                            Exc = -20.6266430359     Coul =  127.424640921    
                              N = 23.999999028    
                            current damping = 0.500
 
          Norm of current diis error: 0.38964E-04
          max. resid. norm for Fia-block=  1.674D-06 for orbital     11a         
          max. resid. fock norm         =  3.498D-06 for orbital    263a         

 DENSITY CONVERGED !


 ITERATION  ENERGY          1e-ENERGY        2e-ENERGY     RMS[dD(SAO)]   TOL
  15  -153.64898007762    -313.74494158     106.79798194    0.450D-07 0.936D-13
                            Exc = -20.6266413297     Coul =  127.424623271    
                              N = 23.999999028    
                            current damping = 0.550
 
          Norm of current diis error: 0.84067E-05
          max. resid. norm for Fia-block=  5.673D-07 for orbital      9a         
          max. resid. fock norm         =  7.265D-07 for orbital    164a         
          mo-orthogonalization: Cholesky decomposition

 DENSITY CONVERGED !


 ITERATION  ENERGY          1e-ENERGY        2e-ENERGY     RMS[dD(SAO)]   TOL
  16  -153.64898007762    -313.74492395     106.79796431    0.216D-07 0.936D-13
                            Exc = -20.6266392845     Coul =  127.424603592    
                              N = 23.999999028    
                            current damping = 0.400
 
          Norm of current diis error: 0.87318E-05
          max. resid. norm for Fia-block=  3.029D-07 for orbital     12a         
          max. resid. fock norm         =  6.245D-07 for orbital    289a         

 ENERGY & DENSITY CONVERGED !

          Overall gridpoints after grid construction =        110604

 ITERATION  ENERGY          1e-ENERGY        2e-ENERGY     RMS[dD(SAO)]   TOL
  17  -153.64897800935    -313.74492383     106.79796626    0.874D-08 0.936D-13
                            Exc = -20.6266370115     Coul =  127.424603274    
                              N = 23.999999769    
                            current damping = 0.450
 
          Norm of current diis error: 0.57561E-05
          max. resid. norm for Fia-block=  1.751D-07 for orbital      7a         
          max. resid. fock norm         =  2.191D-07 for orbital    279a         

 End of SCF iterations

   convergence criteria satisfied after    17 iterations


                  ------------------------------------------ 
                 |  total energy      =   -153.64897800935  |
                  ------------------------------------------ 
                 :  kinetic energy    =    153.04805223989  :
                 :  potential energy  =   -306.69703024924  :
                 :  virial theorem    =      1.99608896995  :
                 :  wavefunction norm =      1.00000000000  :
                  .......................................... 


 <geterg> : there is no data group $energy 


 <skperg> : $end is missing 


 orbitals $scfmo  will be written to file mos

    irrep                  8a          9a         10a         11a         12a   
 eigenvalues H         -0.43082    -0.35897    -0.28090    -0.24642    -0.24615
            eV         -11.7233     -9.7681     -7.6436     -6.7056     -6.6981
 occupation              2.0000      2.0000      2.0000      2.0000      2.0000 

    irrep                 13a         14a         15a         16a         17a   
 eigenvalues H         -0.02346     0.00031     0.00156     0.04240     0.04544
            eV          -0.6384      0.0084      0.0426      1.1538      1.2366
 
 
 
 
 ==============================================================================
                           electrostatic moments
 ==============================================================================

 reference point for electrostatic moments:    0.00000   0.00000   0.00000

 
              nuc           elec       ->  total
 ------------------------------------------------------------------------------
                          charge      
 ------------------------------------------------------------------------------
          24.000000     -24.000000       0.000000
 
 ------------------------------------------------------------------------------
                       dipole moment  
 ------------------------------------------------------------------------------
   x       2.281765      -1.336066       0.945699
   y      -3.564525       3.408792      -0.155733
   z      -2.831302       2.708420      -0.122882
 
   | dipole moment | =     0.9663 a.u. =     2.4560 debye 
 
 ------------------------------------------------------------------------------
                     quadrupole moment
 ------------------------------------------------------------------------------
  xx     369.441851    -373.322198      -3.880347
  yy       2.724545     -17.647404     -14.922859
  zz       3.215752     -17.653667     -14.437915
  xy     -14.674090      13.409678      -1.264413
  xz     -11.634726      10.630164      -1.004562
  yz      -1.078800       0.024298      -1.054502
 
     1/3  trace=     -11.080374
     anisotropy=      11.312684
 
 ==============================================================================
 


    ------------------------------------------------------------------------
         total  cpu-time :  1 minutes and 24 seconds
         total wall-time :   8.06 seconds
    ------------------------------------------------------------------------

   ****  ridft : all done  ****


    2018-04-24 21:14:47.522 

