 operating system is UNIX !

 ridft (c-18-414.gp.local) : TURBOMOLE V7.2 ( 21454 ) 4 Oct 2017 at 12:48:15
 Copyright (C) 2017 TURBOMOLE GmbH, Karlsruhe


    2018-05-18 15:41:49.259 



                                  r i d f t

                        DFT program with RI approximation 
                                for coulomb part 




                                                 
                                 References:     
                                                 
          TURBOMOLE:                             
              R. Ahlrichs, M. Baer, M. Haeser, H. Horn, and
              C. Koelmel
              Electronic structure calculations on workstation
              computers: the program system TURBOMOLE
              Chem. Phys. Lett. 162: 165 (1989)
          Density Functional:                              
              O. Treutler and R. Ahlrichs                      
              Efficient Molecular Numerical Integration Schemes
              J. Chem. Phys. 102: 346 (1995)                   
          Parallel Version:                                
              Performance of parallel TURBOMOLE for Density    
              Functional Calculations                          
              M. v. Arnim and R. Ahlrichs                      
              J. Comp. Chem. 19: 1746 (1998)                   
          RI-J Method:                                     
              Auxiliary Basis Sets to approximate Coulomb      
              Potentials                                       
              Chem. Phys. Lett. 240: 283 (1995)                
              K. Eichkorn, O. Treutler, H. Oehm, M. Haeser     
              and R. Ahlrichs                                  
              Chem. Phys. Lett. 242: 652 (1995)                
                                                           
              Auxiliary Basis Sets for Main Row Atoms and their
              Use to approximate Coulomb Potentials            
              K. Eichkorn, F. Weigend, O. Treutler and         
              R. Ahlrichs                                      
              Theo. Chem. Acc. 97: 119 (1997)                   
                                                           
              Accurate Coulomb-fitting basis sets for H to Rn 
              F. Weigend                                        
              Phys. Chem. Chem. Phys. 8: 1057 (2006)            
                                                           
          Multipole accelerated RI-J (MARI-J):             
              Fast evaluation of the Coulomb potential for     
              electron densities using multipole accelerated   
              resolution of identity approximation             
              M. Sierka, A. Hogekamp and R. Ahlrichs           
              J. Chem. Phys. 118: 9136 (2003)                  
          RI-JK Method:                                     
              A fully direct RI-HF algorithm: Implementation,
              optimised auxiliary basis sets, demonstration of
              accuracy and efficiency                         
              F. Weigend                                      
              Phys. Chem. Chem. Phys. 4: 4285 (2002)           
          Two-component HF and DFT with spin-orbit coupling:  
              Self-consistent treatment of spin-orbit         
              interactions with efficient Hartree-Fock and    
              density functional methods                      
              M. K. Armbruster, F. Weigend, C. van Wüllen and 
              W. Klopper                                      
              Phys. Chem. Chem. Phys. 10: 1748 (2008)         
          Relativistic all-electron 2c calculations           
              An efficient implementation of two-component    
              relativistic exact-decoupling methods for large 
              molecules                                       
              D. Peng, N. Middendorf, F. Weigend, M. Reiher   
              J. Chem. Phys. 138, 184105 (2013)               
                                         




              +--------------------------------------------------+
              |      general information about current run       |
              +--------------------------------------------------+

 
 TPSS meta-GGA functional
 exchange:    LDA + TPSS
 correlation: LDA (PW) + TPSS
 A DFT calculation using the RI-J approximation will be carried out.
 Allocatable memory for RI due to $ricore (MB):                   500


              +--------------------------------------------------+
              | Atomic coordinate, charge and isotop information |
              +--------------------------------------------------+

                    atomic coordinates            atom    charge  isotop
         -1.47129038   -0.87554913    4.70615068    c      6.000     0
          0.42470579   -0.09628710    4.56082294    h      1.000     0
         -1.36528923   -2.81019623    5.39438319    h      1.000     0
         -2.55473507    0.20941364    6.07298197    h      1.000     0
         -2.87333348   -0.86290127    2.21537319    c      6.000     0
         -5.10383888   -1.48076244    2.05903958    o      8.000     0
         -1.49657543   -0.13160144    0.19008636    n      7.000     0
          0.36681786    0.27534803    0.38347199    h      1.000     0
         -2.64145606   -0.10598047   -2.28905914    c      6.000     0
         -4.37457996    0.99945954   -2.26712318    h      1.000     0
         -1.32054859    0.73181781   -3.61951759    h      1.000     0
         -3.12368389   -2.00599899   -2.92044882    h      1.000     0
 
       center of nuclear mass  :   -2.71664144   -0.68959638    1.35319554
       center of nuclear charge:   -2.62926329   -0.66325845    1.33005700

              +--------------------------------------------------+
              |               basis set information              |
              +--------------------------------------------------+

              we will work with the 1s 3p 5d 7f 9g ... basis set
              ...i.e. with spherical basis functions...

   type   atoms  prim   cont   basis
   ---------------------------------------------------------------------------
    c        3     77     57   def2-QZVP   [7s4p3d2f1g|15s8p3d2f1g]
    h        7     33     30   def2-QZVP   [4s3p2d1f|7s3p2d1f]
    o        1     77     57   def2-QZVP   [7s4p3d2f1g|15s8p3d2f1g]
    n        1     77     57   def2-QZVP   [7s4p3d2f1g|15s8p3d2f1g]
   ---------------------------------------------------------------------------
   total:   12    616    495
   ---------------------------------------------------------------------------

   total number of primitive shells          :  100
   total number of contracted shells         :  155
   total number of cartesian basis functions :  605
   total number of SCF-basis functions       :  495


 integral neglect threshold       :  0.55E-13
 integral storage threshold THIZE :  0.10E-04
 integral storage threshold THIME :         5

 RI-J AUXILIARY BASIS SET information:

              we will work with the 1s 3p 5d 7f 9g ... basis set
              ...i.e. with spherical basis functions...

   type   atoms  prim   cont   basis
   ---------------------------------------------------------------------------
    c        3     70     49   def2-QZVP   [6s4p3d1f1g|12s5p4d2f1g]
    h        7     16     11   def2-QZVP   [3s1p1d|5s2p1d]
    o        1     70     49   def2-QZVP   [6s4p3d1f1g|12s5p4d2f1g]
    n        1     70     49   def2-QZVP   [6s4p3d1f1g|12s5p4d2f1g]
   ---------------------------------------------------------------------------
   total:   12    462    322
   ---------------------------------------------------------------------------

   total number of primitive shells          :   80
   total number of contracted shells         :  110
   total number of cartesian basis functions :  389
   total number of SCF-basis functions       :  322


 symmetry group of the molecule :   c1 

 the group has the following generators :
   c1(z)

    1 symmetry operations found

 there are 1 real representations :   a   

 maximum number of shells which are related by symmetry :  1


    mo occupation :
   irrep   mo's   occupied
    a      495       20
 
 number of basis functions   :                    495
 number of occupied orbitals :                     20
 
  
           ------------------
           density functional
           ------------------
 TPSS meta-GGA functional
 exchange:    LDA + TPSS
 correlation: LDA (PW) + TPSS

 iterations will be done with small grid
  
 spherical integration : Lebedev's spherical grid
 spherical gridsize    :                     5
    i.e. gridpoints    :                   590
 value for diffuse not defined
 radial integration    : Chebyshev 2nd kind (scaling 3)
 radial gridsize       :                     8
 integration cells     :                    12
 partition function    : becke
 partition sharpness   :                     3
  

 biggest AO integral is expected to be     6.990327543
  
           ------------------------
               RI-J - INFORMATION
           ------------------------
 Contributions to RI integral batches: 
  neglected integral batches:                  1539
  direct contribution:                            0
  memory contribution:                 10551
 Memory core needed for (P|Q) and Cholesky      1 MByte
 Memory core minimum needed except of (P|Q)     2 MByte
 Total minimum memory core needed (sum)         3 MByte
  
 ****************************************
 Memory allocated for RI-J   484 MByte
 ****************************************
                                            

          ------------------------
          nuclear repulsion energy  :   180.814995611    
          ------------------------


         -----------------
         -S,T+V- integrals
         -----------------

 1e-integrals will be neglected if expon. factor < 0.552390E-14
 
   Difference densities algorithm switched on.
   The maximal number of linear combinations of
   difference densities is                    20 .

 DIIS switched on: error vector is FDS-SDF
 Max. Iterations for DIIS is     :   4
 DIIS matrix (see manual) 
    Scaling factor of diagonals  :  1.200
    threshold for scaling factor :  0.000

 scf convergence criterion : increment of total energy < .1000000D-08
                  and increment of one-electron energy < .1000000D-05

  MOs are in ASCII format !


 automatic virtual orbital shift switched on 
      shift if e(lumo)-e(homo) < 0.10000000    


 reading orbital data $scfmo  from file mos
 orbital characterization : expanded
 mo provided and orthogonalized by Cholesky decomposition

 DSCF restart information will be dumped onto file mos


 Starting SCF iterations

          Overall gridpoints after grid construction =         56054

 ITERATION  ENERGY          1e-ENERGY        2e-ENERGY     NORM[dD(SAO)]  TOL
   1  -247.53901753509    -689.01796350     260.66395035    0.000D+00 0.551D-13
                            Exc = -34.0244242540     Coul =  294.688374606    
                              N = 39.999960779    
                            current damping = 0.700
 
          max. resid. norm for Fia-block=  8.284D-01 for orbital      6a         
          max. resid. fock norm         =  6.279D+01 for orbital    445a         

 ITERATION  ENERGY          1e-ENERGY        2e-ENERGY     NORM[dD(SAO)]  TOL
   2  -248.48030108078    -692.77076446     263.47546777    0.120D+01 0.426D-13
                            Exc = -34.2022994511     Coul =  297.677767222    
                              N = 39.999969314    
                            current damping = 0.650
 
          Norm of current diis error:  2.7808    
          max. resid. norm for Fia-block=  1.624D-01 for orbital      1a         
          max. resid. fock norm         =  3.366D-01 for orbital    276a         

 ITERATION  ENERGY          1e-ENERGY        2e-ENERGY     NORM[dD(SAO)]  TOL
   3  -248.62270861021    -694.26844038     264.83073616    0.506D+00 0.296D-13
                            Exc = -34.4284191407     Coul =  299.259155298    
                              N = 39.999973245    
                            current damping = 0.550
 
          Norm of current diis error:  1.3270    
          max. resid. norm for Fia-block=  6.282D-02 for orbital      1a         
          max. resid. fock norm         =  6.618D-02 for orbital    255a         

 ITERATION  ENERGY          1e-ENERGY        2e-ENERGY     NORM[dD(SAO)]  TOL
   4  -248.66778715637    -694.26680257     264.78401980    0.275D+00 0.239D-13
                            Exc = -34.4218219078     Coul =  299.205841707    
                              N = 39.999976452    
                            current damping = 0.600
 
          Norm of current diis error: 0.56302    
          max. resid. norm for Fia-block=  3.327D-02 for orbital      6a         
          max. resid. fock norm         =  7.402D-02 for orbital    465a         

 ITERATION  ENERGY          1e-ENERGY        2e-ENERGY     NORM[dD(SAO)]  TOL
   5  -248.67423638923    -694.78980180     265.30056980    0.116D+00 0.220D-13
                            Exc = -34.5101995933     Coul =  299.810769396    
                              N = 39.999977300    
                            current damping = 0.650
 
          Norm of current diis error: 0.33110    
          max. resid. norm for Fia-block=  1.098D-02 for orbital     20a         
          max. resid. fock norm         =  1.408D-02 for orbital    472a         
          mo-orthogonalization: Cholesky decomposition

 ITERATION  ENERGY          1e-ENERGY        2e-ENERGY     NORM[dD(SAO)]  TOL
   6  -248.67750777012    -694.81900820     265.32650482    0.371D-01 0.206D-13
                            Exc = -34.5090354209     Coul =  299.835540236    
                              N = 39.999977964    
                            current damping = 0.500
 
          Norm of current diis error: 0.83688E-01
          max. resid. norm for Fia-block=  4.355D-03 for orbital     19a         
          max. resid. fock norm         =  7.120D-03 for orbital    474a         

 ITERATION  ENERGY          1e-ENERGY        2e-ENERGY     NORM[dD(SAO)]  TOL
   7  -248.67772789488    -694.73705646     265.24433295    0.143D-01 0.198D-13
                            Exc = -34.5016914036     Coul =  299.746024355    
                              N = 39.999978134    
                            current damping = 0.550
 
          Norm of current diis error: 0.44416E-01
          max. resid. norm for Fia-block=  1.748D-03 for orbital      6a         
          max. resid. fock norm         =  3.602D-03 for orbital    472a         

 ITERATION  ENERGY          1e-ENERGY        2e-ENERGY     NORM[dD(SAO)]  TOL
   8  -248.67777427812    -694.78002355     265.28725366    0.297D-02 0.194D-13
                            Exc = -34.5072371377     Coul =  299.794490794    
                              N = 39.999978214    
                            current damping = 0.600
 
          Norm of current diis error: 0.94154E-02
          max. resid. norm for Fia-block=  6.044D-04 for orbital      6a         
          max. resid. fock norm         =  1.506D-03 for orbital    474a         

 ITERATION  ENERGY          1e-ENERGY        2e-ENERGY     NORM[dD(SAO)]  TOL
   9  -248.67777695172    -694.79363168     265.30085912    0.872D-03 0.190D-13
                            Exc = -34.5088967907     Coul =  299.809755907    
                              N = 39.999978239    
                            current damping = 0.450
 
          Norm of current diis error: 0.43395E-02
          max. resid. norm for Fia-block=  2.510D-04 for orbital     20a         
          max. resid. fock norm         =  4.755D-04 for orbital    472a         

 ITERATION  ENERGY          1e-ENERGY        2e-ENERGY     NORM[dD(SAO)]  TOL
  10  -248.67777740919    -694.78994161     265.29716858    0.295D-03 0.188D-13
                            Exc = -34.5084907406     Coul =  299.805659325    
                              N = 39.999978250    
                            current damping = 0.500
 
          Norm of current diis error: 0.30928E-02
          max. resid. norm for Fia-block=  1.272D-04 for orbital     19a         
          max. resid. fock norm         =  2.531D-04 for orbital    476a         
          mo-orthogonalization: Cholesky decomposition

 ITERATION  ENERGY          1e-ENERGY        2e-ENERGY     NORM[dD(SAO)]  TOL
  11  -248.67777766696    -694.78923994     265.29646666    0.925D-04 0.187D-13
                            Exc = -34.5085889429     Coul =  299.805055600    
                              N = 39.999978250    
                            current damping = 0.350
 
          Norm of current diis error: 0.10003E-02
          max. resid. norm for Fia-block=  3.991D-05 for orbital     10a         
          max. resid. fock norm         =  1.069D-04 for orbital    472a         

 ITERATION  ENERGY          1e-ENERGY        2e-ENERGY     NORM[dD(SAO)]  TOL
  12  -248.67777768791    -694.79162791     265.29885461    0.562D-04 0.185D-13
                            Exc = -34.5088021949     Coul =  299.807656803    
                              N = 39.999978252    
                            current damping = 0.400
 
          Norm of current diis error: 0.30140E-03
          max. resid. norm for Fia-block=  1.343D-05 for orbital     19a         
          max. resid. fock norm         =  1.942D-05 for orbital    472a         

 ITERATION  ENERGY          1e-ENERGY        2e-ENERGY     NORM[dD(SAO)]  TOL
  13  -248.67777769003    -694.79132523     265.29855193    0.138D-04 0.184D-13
                            Exc = -34.5087672144     Coul =  299.807319146    
                              N = 39.999978252    
                            current damping = 0.450
 
          Norm of current diis error: 0.15344E-03
          max. resid. norm for Fia-block=  4.520D-06 for orbital     10a         
          max. resid. fock norm         =  9.352D-06 for orbital    472a         

 ITERATION  ENERGY          1e-ENERGY        2e-ENERGY     NORM[dD(SAO)]  TOL
  14  -248.67777769044    -694.79116293     265.29838963    0.364D-05 0.183D-13
                            Exc = -34.5087595431     Coul =  299.807149173    
                              N = 39.999978252    
                            current damping = 0.300
 
          Norm of current diis error: 0.58052E-04
          max. resid. norm for Fia-block=  2.713D-06 for orbital     19a         
          max. resid. fock norm         =  5.833D-06 for orbital    474a         

 ITERATION  ENERGY          1e-ENERGY        2e-ENERGY     NORM[dD(SAO)]  TOL
  15  -248.67777769049    -694.79121062     265.29843731    0.919D-06 0.182D-13
                            Exc = -34.5087654035     Coul =  299.807202718    
                              N = 39.999978252    
                            current damping = 0.350
 
          Norm of current diis error: 0.41541E-04
          max. resid. norm for Fia-block=  1.333D-06 for orbital     19a         
          max. resid. fock norm         =  2.138D-06 for orbital    470a         
          mo-orthogonalization: Cholesky decomposition

 ITERATION  ENERGY          1e-ENERGY        2e-ENERGY     NORM[dD(SAO)]  TOL
  16  -248.67777769054    -694.79122828     265.29845498    0.246D-06 0.181D-13
                            Exc = -34.5087650879     Coul =  299.807220066    
                              N = 39.999978252    
                            current damping = 0.200
 
          Norm of current diis error: 0.10635E-04
          max. resid. norm for Fia-block=  3.628D-07 for orbital     17a         
          max. resid. fock norm         =  8.520D-07 for orbital    472a         

 ENERGY CONVERGED !

          Overall gridpoints after grid construction =        184353

 ITERATION  ENERGY          1e-ENERGY        2e-ENERGY     NORM[dD(SAO)]  TOL
  17  -248.67770437804    -694.79123057     265.29853058    0.997D-07 0.179D-13
                            Exc = -34.5086928357     Coul =  299.807223415    
                              N = 39.999999013    
                            current damping = 0.050
 
          Norm of current diis error: 0.57141E-05
          max. resid. norm for Fia-block=  1.327D-07 for orbital     20a         
          max. resid. fock norm         =  1.598D-07 for orbital    472a         

 End of SCF iterations

   convergence criteria satisfied after    17 iterations


                  ------------------------------------------ 
                 |  total energy      =   -248.67770437804  |
                  ------------------------------------------ 
                 :  kinetic energy    =    247.67897442865  :
                 :  potential energy  =   -496.35667880668  :
                 :  virial theorem    =      1.99598383799  :
                 :  wavefunction norm =      1.00000000000  :
                  .......................................... 


 <geterg> : there is no data group $energy 


 <skperg> : $end is missing 


 orbitals $scfmo  will be written to file mos

    irrep                 16a         17a         18a         19a         20a   
 eigenvalues H         -0.35569    -0.34856    -0.31324    -0.22598    -0.20820
            eV          -9.6790     -9.4850     -8.5237     -6.1493     -5.6656
 occupation              2.0000      2.0000      2.0000      2.0000      2.0000 

    irrep                 21a         22a         23a         24a         25a   
 eigenvalues H         -0.00754    -0.00568     0.02702     0.03672     0.07047
            eV          -0.2053     -0.1544      0.7353      0.9993      1.9175
 
 
 
 
 ==============================================================================
                           electrostatic moments
 ==============================================================================

 reference point for electrostatic moments:    0.00000   0.00000   0.00000

 
              nuc           elec       ->  total
 ------------------------------------------------------------------------------
                          charge      
 ------------------------------------------------------------------------------
          40.000000     -40.000000      -0.000000
 
 ------------------------------------------------------------------------------
                       dipole moment  
 ------------------------------------------------------------------------------
   x    -105.170532     106.581937       1.411405
   y     -26.530338      26.957165       0.426827
   z      53.202280     -53.538939      -0.336659
 
   | dipole moment | =     1.5125 a.u. =     3.8443 debye 
 
 ------------------------------------------------------------------------------
                     quadrupole moment
 ------------------------------------------------------------------------------
  xx     367.803538    -399.846842     -32.043305
  yy      40.381645     -64.283267     -23.901621
  zz     341.641641    -362.851750     -21.210110
  xy      90.413774     -93.109031      -2.695257
  xz    -126.504488     129.910433       3.405945
  yz     -72.581189      73.089887       0.508699
 
     1/3  trace=     -25.718345
     anisotropy=      12.361862
 
 ==============================================================================
 


    ------------------------------------------------------------------------
         total  cpu-time :  2 minutes and 37 seconds
         total wall-time :  3 minutes and 41 seconds
    ------------------------------------------------------------------------

   ****  ridft : all done  ****


    2018-05-18 15:45:30.644 

