
 eiger (gplogin3.local) : TURBOMOLE V7.2 ( 21285 ) 30 Jun 2017 at 11:51:10
 Copyright (C) 2017 TURBOMOLE GmbH, Karlsruhe


    2017-11-10 14:01:15.046 

                                                                                
  
 HOMO-LUMO Separation
   HOMO:    36.    36 a     -0.22074467 H =     -6.00677 eV
   LUMO:    37.    37 a     -0.00293846 H =     -0.07996 eV
   Gap :                    +0.21780621 H =     +5.92681 eV
 
Number of MOs=    494, Electrons=     72.00, Symmetry: c1   
 
   Nr.   Orbital    Occupation       Energy
   53.    53 a                     +0.156854 H =        +4.268 eV
   52.    52 a                     +0.145766 H =        +3.967 eV
   51.    51 a                     +0.131064 H =        +3.566 eV
   50.    50 a                     +0.122604 H =        +3.336 eV
   49.    49 a                     +0.117434 H =        +3.196 eV
   48.    48 a                     +0.109072 H =        +2.968 eV
   47.    47 a                     +0.105111 H =        +2.860 eV
   46.    46 a                     +0.095214 H =        +2.591 eV
   45.    45 a                     +0.084381 H =        +2.296 eV
   44.    44 a                     +0.080008 H =        +2.177 eV
   43.    43 a                     +0.071654 H =        +1.950 eV
   42.    42 a                     +0.067443 H =        +1.835 eV
   41.    41 a                     +0.048978 H =        +1.333 eV
   40.    40 a                     +0.040528 H =        +1.103 eV
   39.    39 a                     +0.035196 H =        +0.958 eV
   38.    38 a                     +0.029008 H =        +0.789 eV
   37.    37 a                     -0.002938 H =        -0.080 eV
   36.    36 a        2.000        -0.220745 H =        -6.007 eV
   35.    35 a        2.000        -0.251250 H =        -6.837 eV
   34.    34 a        2.000        -0.257573 H =        -7.009 eV
   33.    33 a        2.000        -0.264158 H =        -7.188 eV
   32.    32 a        2.000        -0.275542 H =        -7.498 eV
   31.    31 a        2.000        -0.282110 H =        -7.677 eV
   30.    30 a        2.000        -0.293822 H =        -7.995 eV
   29.    29 a        2.000        -0.299542 H =        -8.151 eV
   28.    28 a        2.000        -0.314292 H =        -8.552 eV
   27.    27 a        2.000        -0.319295 H =        -8.688 eV
   26.    26 a        2.000        -0.332960 H =        -9.060 eV
   25.    25 a        2.000        -0.362487 H =        -9.864 eV
   24.    24 a        2.000        -0.368900 H =       -10.038 eV
   23.    23 a        2.000        -0.376028 H =       -10.232 eV
   22.    22 a        2.000        -0.395849 H =       -10.772 eV
   21.    21 a        2.000        -0.410933 H =       -11.182 eV


    ------------------------------------------------------------------------
         total  cpu-time :   0.16 seconds
         total wall-time :   0.17 seconds
    ------------------------------------------------------------------------

   ****  eiger : all done  ****


    2017-11-10 14:01:15.193 

