Using OpenMPI from /sopt/mpi/openmpi-1.8.6/intel_15.0.3/bin/mpiexec
STARTING ridft ON 8 PROCESSORS!
RUNNING PROGRAM /beegfs/modfac/apps/TURBOMOLE/7.0_intel/bin/em64t-unknown-linux-gnu_mpi/ridft_mpi.
PLEASE WAIT UNTIL ridft HAS FINISHED.
Look for the output in slave1.output.
  this is node-proc. number 1 running on node c-5-31.local
  the total number of node-proc. spawned is            7
  parallel platform: MPP, or cluster with fast interconnect

 ridft (c-5-31.local) : TURBOMOLE V7.0( ) 6 Jul 2015 at 19:34:44
 Copyright (C) 2015 TURBOMOLE GmbH, Karlsruhe


    2017-11-09 01:36:46.937 



                                  r i d f t

                        DFT program with RI approximation 
                                for coulomb part 




                                                 
                                 References:     
                                                 
          TURBOMOLE:                             
              R. Ahlrichs, M. Baer, M. Haeser, H. Horn, and
              C. Koelmel
              Electronic structure calculations on workstation
              computers: the program system TURBOMOLE
              Chem. Phys. Lett. 162: 165 (1989)
          Density Functional:                              
              O. Treutler and R. Ahlrichs                      
              Efficient Molecular Numerical Integration Schemes
              J. Chem. Phys. 102: 346 (1995)                   
          Parallel Version:                                
              Performance of parallel TURBOMOLE for Density    
              Functional Calculations                          
              M. v. Arnim and R. Ahlrichs                      
              J. Comp. Chem. 19: 1746 (1998)                   
          RI-J Method:                                     
              Auxiliary Basis Sets to approximate Coulomb      
              Potentials                                       
              Chem. Phys. Lett. 240: 283 (1995)                
              K. Eichkorn, O. Treutler, H. Oehm, M. Haeser     
              and R. Ahlrichs                                  
              Chem. Phys. Lett. 242: 652 (1995)                
                                                           
              Auxiliary Basis Sets for Main Row Atoms and their
              Use to approximate Coulomb Potentials            
              K. Eichkorn, F. Weigend, O. Treutler and         
              R. Ahlrichs                                      
              Theo. Chem. Acc. 97: 119 (1997)                   
                                                           
              Accurate Coulomb-fitting basis sets for H to Rn 
              F. Weigend                                        
              Phys. Chem. Chem. Phys. 8: 1057 (2006)            
                                                           
          Multipole accelerated RI-J (MARI-J):             
              Fast evaluation of the Coulomb potential for     
              electron densities using multipole accelerated   
              resolution of identity approximation             
              M. Sierka, A. Hogekamp and R. Ahlrichs           
              J. Chem. Phys. 118: 9136 (2003)                  
          RI-JK Method:                                     
              A fully direct RI-HF algorithm: Implementation,
              optimised auxiliary basis sets, demonstration of
              accuracy and efficiency                         
              F. Weigend                                      
              Phys. Chem. Chem. Phys. 4: 4285 (2002)           
          Two-component HF and DFT with spin-orbit coupling:  
              Self-consistent treatment of spin-orbit         
              interactions with efficient Hartree-Fock and    
              density functional methods                      
              M. K. Armbruster, F. Weigend, C. van Wüllen and 
              W. Klopper                                      
              Phys. Chem. Chem. Phys. 10: 1748 (2008)         
          Relativistic all-electron 2c calculations           
              An efficient implementation of two-component    
              relativistic exact-decoupling methods for large 
              molecules                                       
              D. Peng, N. Middendorf, F. Weigend, M. Reiher   
              J. Chem. Phys. 138, 184105 (2013)               
                                         


 


              +--------------------------------------------------+
              |      general information about current run       |
              +--------------------------------------------------+

 

 SCF run will be profiled !


 DENSITY CONVERGENCE CHECK SWITCHED ON !
 SCF CONVERGENCE IF RMS(delta[D]) <     0.1000000000E-06

 PBE functional
 exchange:    LDA + PBE
 correlation: LDA (PW) + PBE
 A DFT calculation using the RI-J approximation will be carried out.
 Allocatable memory for RI due to $ricore (MB):       13000


              +--------------------------------------------------+
              | Atomic coordinate, charge and isotop information |
              +--------------------------------------------------+

                    atomic coordinates            atom    charge  isotop
         -2.74493223   -1.87671405   -4.00081949    c      6.000     0
         -1.13049587   -2.23546927    0.70217177    c      6.000     0
          2.71710405   -3.61459694   -3.70375763    c      6.000     0
          2.07077280   -1.07807224   -4.99373223    c      6.000     0
          1.69489423   -1.57651789    0.65949744    c      6.000     0
          3.41007013   -3.32159326   -0.89660365    c      6.000     0
         -2.84586354   -0.92471947   -1.26137466    c      6.000     0
         -0.71858182   -0.78804431   -5.77869192    c      6.000     0
         -2.42991600    1.75977870   -1.29578864    o      8.000     0
         -3.26559074    2.52091046    0.16926919    h      1.000     0
         -4.78753680   -1.30159676   -0.61291552    h      1.000     0
          2.57390285    0.47896758   -3.72744466    h      1.000     0
          1.11798152   -4.91850822   -3.88702246    h      1.000     0
          1.88787656    0.38846290    0.03605392    h      1.000     0
         -4.57481236   -1.42692602   -4.86645456    h      1.000     0
         -2.63098388   -3.94653987   -3.94794013    h      1.000     0
         -1.11833576    1.21996094   -6.07566089    h      1.000     0
         -1.86660060   -1.66872136    2.55519685    h      1.000     0
          2.39331049   -1.59863219    2.60808292    h      1.000     0
         -0.99794645   -1.71811175   -7.61330710    h      1.000     0
          5.34211859   -2.57887175   -0.76702191    h      1.000     0
         -1.42181338   -4.28870859    0.57175932    h      1.000     0
          3.23972190   -0.82545010   -6.68533025    h      1.000     0
          4.29985450   -4.53789125   -4.67175952    h      1.000     0
          3.45082775   -5.19848837   -0.00954924    h      1.000     0
 
       center of nuclear mass  :   -0.04479338   -1.45566466   -2.25747583
       center of nuclear charge:   -0.01499371   -1.49744833   -2.26291966

              +--------------------------------------------------+
              |               basis set information              |
              +--------------------------------------------------+

              we will work with the 1s 3p 5d 7f 9g ... basis set
              ...i.e. with spherical basis functions...

   type   atoms  prim   cont   basis
   ---------------------------------------------------------------------------
    c        8     50     30   cc-pVTZ   [4s3p2d1f|18s5p2d1f]
    o        1     50     30   cc-pVTZ   [4s3p2d1f|18s5p2d1f]
    h       16     16     14   cc-pVTZ   [3s2p1d|5s2p1d]
   ---------------------------------------------------------------------------
   total:   25    706    494
   ---------------------------------------------------------------------------

   total number of primitive shells          :   60
   total number of contracted shells         :  186
   total number of cartesian basis functions :  555
   total number of SCF-basis functions       :  494


 integral neglect threshold       :  0.60E-13
 integral storage threshold THIZE :  0.10E-04
 integral storage threshold THIME :         5

 RI-J AUXILIARY BASIS SET information:

              we will work with the 1s 3p 5d 7f 9g ... basis set
              ...i.e. with spherical basis functions...

   type   atoms  prim   cont   basis
   ---------------------------------------------------------------------------
    c        8     70     49   cc-pVTZ   [6s4p3d1f1g|12s5p4d2f1g]
    o        1     70     49   cc-pVTZ   [6s4p3d1f1g|12s5p4d2f1g]
    h       16     16     11   cc-pVTZ   [3s1p1d|5s2p1d]
   ---------------------------------------------------------------------------
   total:   25    886    617
   ---------------------------------------------------------------------------

   total number of primitive shells          :   56
   total number of contracted shells         :  215
   total number of cartesian basis functions :  741
   total number of SCF-basis functions       :  617


 symmetry group of the molecule :   c1 

 the group has the following generators :
   c1(z)

    1 symmetry operations found

 there are 1 real representations :   a   

 maximum number of shells which are related by symmetry :  1


    mo occupation :
   irrep   mo's   occupied
    a      494       36
 
 number of basis functions   :          494
 number of occupied orbitals :           36
 
  
           ------------------
           density functional
           ------------------
 PBE functional
 exchange:    LDA + PBE
 correlation: LDA (PW) + PBE
 grinp -> nfun, dfgga, dfhybrid 
           6 T F
 iterations will be done with small grid
  
 spherical integration : Lebedev's spherical grid
 spherical gridsize    :           5
    i.e. gridpoints    :         590
 value for diffuse not defined
 radial integration    : Chebyshev 2nd kind (scaling 3)
 radial gridsize       :           8
 integration cells     :          25
 partition function    : becke
 partition sharpness   :           3
  

 <rddim> : input of entry tasksize
           from data group '$pardft' failed !

               Default values taken

 <rddim> : input of entry memdiv
           from data group '$pardft' failed !

               Default values taken
  RIDFT: memory allocation for DFT gridpoints
  MEMORY is divided by 1 as DEFAULT
 Each node can hold at most  the            1 -th part
 of the gridpoints    

 biggest AO integral is expected to be     4.866064444
  
           ------------------------
               RI-J - INFORMATION
           ------------------------
 
 
 **************************************************
 *      MEMORY ALLOCATION FOR PARALLEL RI-DFT     *
 **************************************************
 
 
MEMORY FOR (MU NU/ ALPHA), SEQUENTIAL RUN              12997 MByte
 
            DIFFERENCE IN MEMORY NEED:       DIAG./SLAVE  
 
      TOTAL DIFFERENCE :                     13 MByte
 
      difference in xcore:                    4 MByte
      difference in fatmat:                   4 MByte
      getcor calls skipped by slaves:         7 MByte
 
 
           Integral memory available for diagonal.     12997 MByte
 
           Integral memory available for slave             0 MByte
 
         MEMORY FOR (MU NU/ ALPHA) ON DIAGONALIZER     12997 MByte
 
         MEMORY FOR (MU NU/ ALPHA) ON ONE SLAVE            0 MByte
 
         TOTAL MEMORY FOR (MU NU/ ALPHA),ALL NODES     12997 MByte
 
 Contributions to RI integral batches: 
  neglected integral batches:        1578
  direct contribution:                  0
  memory contribution:       15813
 Memory core needed for (P|Q) and Cholesky      3 MByte
 Memory core minimum needed except of (P|Q)     2 MByte
 Total minimum memory core needed (sum)         5 MByte
  
 ****************************************
 Memory allocated for RI-J 13002 MByte
 ****************************************
                                            

          ------------------------
          nuclear repulsion energy  :   505.009748776    
          ------------------------

 
          -----------------
          -S integrals
          -----------------

 1e-integrals will be neglected if expon. factor < 0.602155E-14
 
          -----------------
          -T+V integrals
          -----------------

 1e-integrals will be neglected if expon. factor < 0.602155E-14
 Difference densities >>NOT<< switched on in parallel ridft!

 automatic virtual orbital shift switched on 
      shift if e(lumo)-e(homo) < 0.10000000    


 DIIS switched on: error vector is FDS-SDF
 Max. Iterations for DIIS is     :   4
 DIIS matrix (see manual) 
    Scaling factor of diagonals  :  1.200
    threshold for scaling factor :  0.000

 scf convergence criterion : increment of total energy < .1000000D-08
                  and increment of one-electron energy < .1000000D-05


 <geterg> : there is no data group $energy 

  MOs are in ASCII format !


 reading orbital data $scfmo  from file mos . 

 orbital characterization : expanded
 
 mo provided and orthogonalized by Cholesky decomposition

 DSCF restart information will be dumped onto file mos


 Starting SCF iterations


 ITERATION  ENERGY          1e-ENERGY        2e-ENERGY     RMS[dD(SAO)]   TOL
   1  -388.09112352802    -1517.0457774     623.94490510    0.000D+00 0.601D-13
                            Exc = -56.3503133254     Coul =  680.295218420    
                              N = 71.999971040    
                            current damping = 0.700
 
          max. resid. norm for Fia-block=  2.991D-01 for orbital      1a         
          max. resid. fock norm         =  3.937D+00 for orbital    472a         

 ITERATION  ENERGY          1e-ENERGY        2e-ENERGY     RMS[dD(SAO)]   TOL
   2  -389.06059013164    -1524.6959091     630.62557016    0.228D-02 0.601D-13
                            Exc = -56.9687985407     Coul =  687.594368703    
                              N = 71.999983668    
                            current damping = 0.650
 
          Norm of current diis error:  2.2549    
          max. resid. norm for Fia-block=  1.273D-01 for orbital      1a         
          max. resid. fock norm         =  2.640D-01 for orbital    492a         

 ITERATION  ENERGY          1e-ENERGY        2e-ENERGY     RMS[dD(SAO)]   TOL
   3  -389.24143654558    -1526.7521940     632.50100866    0.162D-02 0.601D-13
                            Exc = -57.2995982245     Coul =  689.800606888    
                              N = 71.999989430    
                            current damping = 0.550
 
          Norm of current diis error:  1.1368    
          max. resid. norm for Fia-block=  5.385D-02 for orbital      1a         
          max. resid. fock norm         =  5.741D-02 for orbital      1a         

 ITERATION  ENERGY          1e-ENERGY        2e-ENERGY     RMS[dD(SAO)]   TOL
   4  -389.29875721761    -1527.7449168     633.43641081    0.125D-02 0.601D-13
                            Exc = -57.3863880713     Coul =  690.822798885    
                              N = 71.999996829    
                            current damping = 0.450
 
          Norm of current diis error: 0.43953    
          max. resid. norm for Fia-block=  2.880D-02 for orbital     10a         
          max. resid. fock norm         =  4.586D-02 for orbital    490a         

 ITERATION  ENERGY          1e-ENERGY        2e-ENERGY     RMS[dD(SAO)]   TOL
   5  -389.30736460412    -1528.7209318     634.40381840    0.482D-03 0.601D-13
                            Exc = -57.5177332949     Coul =  691.921551699    
                              N = 71.999998277    
                            current damping = 0.350
 
          Norm of current diis error: 0.21625    
          max. resid. norm for Fia-block=  1.162D-02 for orbital     36a         
          max. resid. fock norm         =  1.275D-02 for orbital     36a         
          mo-orthogonalization: Cholesky decomposition

 ITERATION  ENERGY          1e-ENERGY        2e-ENERGY     RMS[dD(SAO)]   TOL
   6  -389.30958032171    -1528.3669809     634.04765179    0.441D-03 0.601D-13
                            Exc = -57.4926087456     Coul =  691.540260533    
                              N = 71.999999800    
                            current damping = 0.400
 
          Norm of current diis error: 0.74876E-01
          max. resid. norm for Fia-block=  2.718D-03 for orbital     10a         
          max. resid. fock norm         =  3.890D-03 for orbital    477a         

 ITERATION  ENERGY          1e-ENERGY        2e-ENERGY     RMS[dD(SAO)]   TOL
   7  -389.30979017731    -1528.6611053     634.34156632    0.596D-04 0.601D-13
                            Exc = -57.5135109368     Coul =  691.855077252    
                              N = 72.000000144    
                            current damping = 0.450
 
          Norm of current diis error: 0.23007E-01
          max. resid. norm for Fia-block=  7.137D-04 for orbital     10a         
          max. resid. fock norm         =  1.365D-03 for orbital    486a         

 ITERATION  ENERGY          1e-ENERGY        2e-ENERGY     RMS[dD(SAO)]   TOL
   8  -389.30980803242    -1528.5934434     634.27388662    0.240D-04 0.601D-13
                            Exc = -57.5123719640     Coul =  691.786258586    
                              N = 72.000000085    
                            current damping = 0.500
 
          Norm of current diis error: 0.59517E-02
          max. resid. norm for Fia-block=  1.899D-04 for orbital     16a         
          max. resid. fock norm         =  2.013D-04 for orbital     16a         

 ITERATION  ENERGY          1e-ENERGY        2e-ENERGY     RMS[dD(SAO)]   TOL
   9  -389.30980953811    -1528.6103634     634.29080513    0.732D-05 0.601D-13
                            Exc = -57.5135146886     Coul =  691.804319814    
                              N = 72.000000121    
                            current damping = 0.550
 
          Norm of current diis error: 0.13119E-02
          max. resid. norm for Fia-block=  8.556D-05 for orbital     36a         
          max. resid. fock norm         =  8.711D-05 for orbital     36a         

 ITERATION  ENERGY          1e-ENERGY        2e-ENERGY     RMS[dD(SAO)]   TOL
  10  -389.30980960780    -1528.6080633     634.28850495    0.320D-05 0.601D-13
                            Exc = -57.5132939562     Coul =  691.801798906    
                              N = 72.000000138    
                            current damping = 0.600
 
          Norm of current diis error: 0.82281E-03
          max. resid. norm for Fia-block=  5.410D-05 for orbital     10a         
          max. resid. fock norm         =  7.380D-05 for orbital    490a         
          mo-orthogonalization: Cholesky decomposition

 ITERATION  ENERGY          1e-ENERGY        2e-ENERGY     RMS[dD(SAO)]   TOL
  11  -389.30980963138    -1528.6104951     634.29093671    0.700D-06 0.601D-13
                            Exc = -57.5135185063     Coul =  691.804455214    
                              N = 72.000000136    
                            current damping = 0.650
 
          Norm of current diis error: 0.36178E-03
          max. resid. norm for Fia-block=  1.518D-05 for orbital     36a         
          max. resid. fock norm         =  1.720D-05 for orbital     36a         

 ITERATION  ENERGY          1e-ENERGY        2e-ENERGY     RMS[dD(SAO)]   TOL
  12  -389.30980963642    -1528.6096418     634.29008343    0.524D-06 0.601D-13
                            Exc = -57.5134754315     Coul =  691.803558861    
                              N = 72.000000136    
                            current damping = 0.700
 
          Norm of current diis error: 0.11081E-03
          max. resid. norm for Fia-block=  4.333D-06 for orbital     16a         
          max. resid. fock norm         =  4.994D-06 for orbital     16a         

 ITERATION  ENERGY          1e-ENERGY        2e-ENERGY     RMS[dD(SAO)]   TOL
  13  -389.30980963681    -1528.6101174     634.29055896    0.130D-06 0.601D-13
                            Exc = -57.5134995698     Coul =  691.804058531    
                              N = 72.000000137    
                            current damping = 0.750
 
          Norm of current diis error: 0.59126E-04
          max. resid. norm for Fia-block=  1.707D-06 for orbital     34a         
          max. resid. fock norm         =  3.363D-06 for orbital    205a         

 DENSITY CONVERGED !


 ITERATION  ENERGY          1e-ENERGY        2e-ENERGY     RMS[dD(SAO)]   TOL
  14  -389.30980963694    -1528.6099647     634.29040630    0.566D-07 0.601D-13
                            Exc = -57.5134922692     Coul =  691.803898572    
                              N = 72.000000138    
                            current damping = 0.800
 
          Norm of current diis error: 0.18339E-04
          max. resid. norm for Fia-block=  9.109D-07 for orbital     10a         
          max. resid. fock norm         =  1.443D-06 for orbital    490a         

 ENERGY & DENSITY CONVERGED !


 ITERATION  ENERGY          1e-ENERGY        2e-ENERGY     RMS[dD(SAO)]   TOL
  15  -389.30981456272    -1528.6099685     634.29040521    0.168D-07 0.601D-13
                            Exc = -57.5134983233     Coul =  691.803903530    
                              N = 72.000009773    
                            current damping = 0.850
 
          Norm of current diis error: 0.60891E-05
          max. resid. norm for Fia-block=  3.240D-07 for orbital     36a         
          max. resid. fock norm         =  3.793D-07 for orbital     74a         

 End of SCF iterations

   convergence criteria satisfied after   15 iterations


                  ------------------------------------------ 
                 |  total energy      =   -389.30981456272  |
                  ------------------------------------------ 
                 :  kinetic energy    =    386.61602251411  :
                 :  potential energy  =   -775.92583707683  :
                 :  virial theorem    =      1.99308059559  :
                 :  wavefunction norm =      1.00000000000  :
                  .......................................... 


 <geterg> : there is no data group $energy 


 <skperg> : $end is missing 


 orbitals $scfmo  will be written to file mos

    irrep                 32a         33a         34a         35a         36a   
 eigenvalues H         -0.27554    -0.26416    -0.25757    -0.25125    -0.22074
            eV          -7.4979     -7.1882     -7.0090     -6.8369     -6.0068
 occupation              2.0000      2.0000      2.0000      2.0000      2.0000 

    irrep                 37a         38a         39a         40a         41a   
 eigenvalues H         -0.00294     0.02901     0.03520     0.04053     0.04898
            eV          -0.0800      0.7894      0.9577      1.1028      1.3328
 
 
 ! grave: sending quit signal to master process
 
 
 
 
 ==============================================================================
                           electrostatic moments
 ==============================================================================

 reference point for electrostatic moments:    0.00000   0.00000   0.00000

 
              nuc           elec       ->  total
 ------------------------------------------------------------------------------
                          charge      
 ------------------------------------------------------------------------------
          72.000000     -72.000000      -0.000000
 
 ------------------------------------------------------------------------------
                       dipole moment  
 ------------------------------------------------------------------------------
   x      -1.079547       0.749908      -0.329639
   y    -107.816279     107.683294      -0.132986
   z    -162.930215     163.323072       0.392857
 
   | dipole moment | =     0.5298 a.u. =     1.3466 debye 
 
 ------------------------------------------------------------------------------
                     quadrupole moment
 ------------------------------------------------------------------------------
  xx     464.621527    -506.825123     -42.203596
  yy     384.577857    -428.224738     -43.646880
  zz     806.018881    -850.067975     -44.049094
  xy    -162.052768     161.934521      -0.118247
  xz     -10.958345       9.760471      -1.197874
  yz     240.594763    -239.007185       1.587578
 
     1/3  trace=     -43.299857
     anisotropy=       3.838387
 
 ==============================================================================
 

    ridft profiling
  --------------------------------------------------------------------
             module   cpu total (s)       %  wall total (s)       %

               RIDFT           116.2  100.00           116.2  100.00
         Ridft_b_scf            57.4   49.39            57.5   49.42
        b_scf_prelim             0.0    0.00             0.0    0.00
        b_scf_molinp             0.0    0.01             0.0    0.01
         b_scf_init0             0.0    0.00             0.0    0.00
        b_scf_auxbas             0.0    0.00             0.0    0.00
      b_scf_symmetry             0.0    0.02             0.1    0.08
         b_scf_cosmo             0.0    0.00             0.0    0.00
        b_scf_params            54.9   47.22            54.8   47.18
          b_scf_ri-j             2.2    1.92             2.2    1.92
    b_scf_ri-j_auxpq             2.2    1.92             2.2    1.92
     ri-j_auxpq_chol             0.0    0.03             0.0    0.03
         b_scf_1elec             0.1    0.07             0.1    0.07
       b_scf_moinput             0.2    0.15             0.2    0.15
     moinput_orthmos             0.2    0.14             0.2    0.14
    b_scf_dft-dstmax             0.0    0.00             0.0    0.00
           Ridft_scf            58.8   50.58            58.8   50.54
          Scf_b_loop             0.0    0.00             0.0    0.00
                noga             0.0    0.00             0.0    0.00
            Scf_loop            58.7   50.49            58.6   50.45
     scf_loop_mkdmat             0.1    0.08             0.1    0.08
       scf_loop_ri-j             3.6    3.08             3.6    3.08
      parlp1.bc.dens             0.0    0.00             0.0    0.01
        parlp1.gs.gp             0.0    0.00             0.0    0.00
        parlp2.bc.gq             0.0    0.00             0.0    0.00
        scf_loop_dft            49.8   42.84            49.8   42.80
      pardft.bc.dens             0.0    0.00             0.0    0.00
        dft_grid_con             0.3    0.25             0.3    0.25
           dft_xcrhf            48.6   41.79            48.6   41.77
          dft_getval             6.2    5.29             6.2    5.31
          funct2 dst             0.1    0.07             0.1    0.09
      funct2 f2loop1             1.6    1.36             1.6    1.36
      funct2 f2loop2             2.6    2.24             2.6    2.24
          funct2 s+c             1.4    1.23             1.4    1.24
        funct2 cmf_2             1.3    1.10             1.3    1.10
          dft_mkdens            19.9   17.10            19.8   17.03
         dft_gga-fun             0.1    0.11             0.1    0.12
          dft_mkfock            22.2   19.12            22.3   19.16
     pardft.red.fock             5.5    4.75             5.5    4.75
     scf_loop_energy             0.0    0.01             0.0    0.01
     scf_loop_mkfock             0.0    0.00             0.0    0.00
       scf_loop_diis             0.8    0.67             0.8    0.67
       scf_loop_diag             3.0    2.58             3.0    2.58
         diag_tritrn             0.7    0.58             0.7    0.59
          diag_rdiag             2.3    1.98             2.3    1.98
     scf_loop_modump             1.2    1.06             1.2    1.07
      scf_loop_ortho             0.2    0.13             0.2    0.13
          Scf_a_loop             0.1    0.09             0.1    0.09
         Ridft_a_scf             0.0    0.03             0.0    0.04
         a_scf_fanal             0.0    0.03             0.0    0.03
 


    ------------------------------------------------------------------------
         total  cpu-time :  1 minutes and 56 seconds
         total wall-time :  1 minutes and 56 seconds
    ------------------------------------------------------------------------


   ****  ridft : all done  ****


    2017-11-09 01:38:43.338 

