
   OpenMP run-time library returned nthreads =  8

 ricc2 (c-16-18.local) : TURBOMOLE V7.2 ( 21471 ) 11 Oct 2017 at 17:04:51
 Copyright (C) 2017 TURBOMOLE GmbH, Karlsruhe


    2018-04-03 16:59:25.206 



                              R I C C 2 - PROGRAM

                          the quantum chemistry groups
                             at the universities in
                           Karlsruhe, Bochum & Mainz
                                   Germany



   *-----------------------------------------------------------------------*
   |                     program will use  8 thread(s)                     |
   *-----------------------------------------------------------------------*


              +--------------------------------------------------+
              | Atomic coordinate, charge and isotop information |
              +--------------------------------------------------+

                    atomic coordinates            atom    charge  isotop
         -0.98135932    2.39897048    0.85754603    c      6.000     0
          0.71446459   -2.37371889   -1.39700457    c      6.000     0
         -0.78504475   -2.22088648    0.90373723    n      7.000     0
          0.64628342    2.24959336   -1.35484881    n      7.000     0
          1.52645023    0.14744777   -2.46505870    c      6.000     0
         -1.64082459   -0.12025376    2.03432596    c      6.000     0
          2.97373359    0.20162942   -4.31233669    o      8.000     0
         -2.95695122   -0.17531934    3.97856574    o      8.000     0
          1.26802496    3.92141529   -2.09556771    h      1.000     0
         -1.30107264   -3.89119703    1.72399102    h      1.000     0
         -2.75928855    3.34035180    0.36890570    h      1.000     0
         -0.32901972   -3.39090870   -2.87093058    h      1.000     0
         -0.08075015    3.56548014    2.31083132    h      1.000     0
          2.42521866   -3.47385114   -1.03428251    h      1.000     0
 
       center of nuclear mass  :   -0.06167708    0.01336339   -0.21841021
       center of nuclear charge:   -0.06502620    0.01328988   -0.22076915

              +--------------------------------------------------+
              |               basis set information              |
              +--------------------------------------------------+

              we will work with the 1s 3p 5d 7f 9g ... basis set
              ...i.e. with spherical basis functions...

   type   atoms  prim   cont   basis
   ---------------------------------------------------------------------------
    c        4     50     30   cc-pVTZ   [4s3p2d1f|18s5p2d1f]
    n        2     50     30   cc-pVTZ   [4s3p2d1f|18s5p2d1f]
    o        2     50     30   cc-pVTZ   [4s3p2d1f|18s5p2d1f]
    h        6     16     14   cc-pVTZ   [3s2p1d|5s2p1d]
   ---------------------------------------------------------------------------
   total:   14    496    324
   ---------------------------------------------------------------------------

   total number of primitive shells          :   86
   total number of contracted shells         :  116
   total number of cartesian basis functions :  370
   total number of SCF-basis functions       :  324


 symmetry group of the molecule :   c1 

 the group has the following generators :
   c1(z)

    1 symmetry operations found

 there are 1 real representations :   a   


   =========================================================================


     restricted closed shell calculation for the wavefunction models:
               MP2        - Second Order Moeller Plesset PT


     global parameters for ricc2 program:

        hard restart (reuse of interm.) :  enabled 
        soft restart (reuse of vectors) :  disabled
        threshold for vector function   :    0.100000E-05
        convergence threshold energy    :    0.100000E-06
        linear dependence threshold     :    0.100000E-13
        global print level              :      1
        maximum number of iterations    :   300
        maximum number DIIS vectors     :    10
        max. dim. of reduced space      :   100
        core memory limit (MB)          : 15258


     MP2 energy only: Energy will be calculated directly from T2 amplitudes!

     Scratch Directory : 


   =========================================================================

    der. integral neglect threshold  :  0.10E-07
    integral neglect threshold       :  0.90E-11
    integral storage threshold THIZE :  0.10E-04
    integral storage threshold THIME :         5


                  +------------------------------------------+
                  |     Auxiliary basis set information      |
                  +------------------------------------------+

              we will work with the 1s 3p 5d 7f 9g ... basis set
              ...i.e. with spherical basis functions...

   type   atoms  prim   cont   basis
   ---------------------------------------------------------------------------
    c        4     81     81   cc-pVTZ   [8s6p5d3f1g|8s6p5d3f1g]
    n        2     81     81   cc-pVTZ   [8s6p5d3f1g|8s6p5d3f1g]
    o        2     81     81   cc-pVTZ   [8s6p5d3f1g|8s6p5d3f1g]
    h        6     30     30   cc-pVTZ   [4s3p2d1f|4s3p2d1f]
   ---------------------------------------------------------------------------
   total:   14    828    828
   ---------------------------------------------------------------------------

   total number of primitive shells          :   79
   total number of contracted shells         :  244
   total number of cartesian basis functions : 1018
   total number of SCF-basis functions       :  828


 maximum number of shells which are related by symmetry :  1


 The symmetry information takes   1 MB

*---------------------------------------------------------------------*
|               simplified C1 algorithm will be applied               |
*---------------------------------------------------------------------*
  MOs are in ASCII format !


 reading orbital data $scfmo  from file mos
 orbital characterization : scfconv=7



              +--------------------------------------------+
              | list of orbitals that will be kept frozen: |
              +--------------------------------------------+
              |   irrep   index      energy     occ/vir    |
              +--------------------------------------------+
              |   a         1      -20.5248     occupied   |
              |   a         2      -20.5247     occupied   |
              |   a         3      -15.6146     occupied   |
              |   a         4      -15.6145     occupied   |
              |   a         5      -11.3740     occupied   |
              |   a         6      -11.3739     occupied   |
              |   a         7      -11.3064     occupied   |
              |   a         8      -11.3063     occupied   |
              +--------------------------------------------+



   Molecular Orbital Statistic:
   ============================

   -----------------------------
   orbitals in total:
   -----------------------------
    frozen occupied :      8
    active occupied :     22
    active virtual  :    294
    frozen virtual  :      0
    all together    :    324
   -----------------------------


     time in riccmos       cpu:  1.58 sec    wall:  0.20 sec    ratio:  8.0

     total memory allocated for calculation of (Q|P)**(-1/2) : 8 MiB


     calculation of (P|Q) ...
     time in lp2sym        cpu:  0.28 sec    wall:  0.03 sec    ratio:  8.1


     calculation of the Cholesky decomposition of (P|Q)**(-1) ...
     time in invmetri      cpu:  0.75 sec    wall:  0.10 sec    ratio:  7.9

   threshold for RMS(d[D]) in SCF was     :  0.10E-06
   integral neglect threshold             :  0.90E-11
   derivative integral neglect threshold  :  0.10E-07


   =========================================================================

     Energy of reference wave function is  -413.7631878025000
     Maximum orbital residual is           0.2245502127690E-04


     Number of symmetry-nonredundant auxiliary basis functions:      828

     Block lengths for integral files:
        frozen occupied (BOI):        1 MiB
        active occupied (BJI):        1 MiB
        active virtual  (BAI):        2 MiB
        frozen virtual  (BGI):        0 MiB
               general  (BTI):        3 MiB

   =========================================================================



   restarted calculation begins with wavefunction model nb. 1 which is MP2     


   **************************************************************************
   *                                                                        *
   *          OPTIMIZATION OF THE GROUND STATE CLUSTER AMPLITUDES           *
   *                                                                        *
   **************************************************************************


   Iter.   MP2 energy       Norm(Omega)    Norm(t1)  Norm(t2)     cpu    wall
   ...........................................................................
    1   -415.2691078700     ------          0.00000   0.38794    0.07    0.01
   ...........................................................................


     time in total         cpu:  4.50 sec    wall:  0.57 sec    ratio:  7.9


     **********************************************************************
     *                                                                    *
     *   RHF  energy                             :   -413.7631878025      *
     *   MP2 correlation energy (doubles)        :     -1.5059200675      *
     *                                                                    *
     *   Final MP2 energy                        :   -415.2691078700      *
     *                                                                    *
     *    E(S)   =     -0.9271858092      E(T)   =     -0.5787342583      *
     *    E(OS)  =     -1.1200972286      E(SS)  =     -0.3858228389      *
     *                                                                    *
     *   SCS-MP2 energy                          :   -415.2359120898      *
     *   (computed with  C(OS) =   1.2000  and  C(SS) =   0.3333)         *
     *                                                                    *
     *   SOS-MP2 energy                          :   -415.2193141997      *
     *   (computed with  C(OS) =   1.3000)                                *
     *                                                                    *
     *   Norm of MP1 T2 amplitudes               :      0.3879383487      *
     *                                                                    *
     **********************************************************************



    ------------------------------------------------------------------------
         total  cpu-time :  15.33 seconds
         total wall-time :   1.97 seconds
    ------------------------------------------------------------------------

   ****  ricc2 : all done  ****


    2018-04-03 16:59:27.126 

