STARTING dscf ON 32 PROCESSORS!
RUNNING PROGRAM /beegfs/modfac/apps/TURBOMOLE/7.2.1-official/bin/em64t-unknown-linux-gnu_mpi/dscf_mpi.
PLEASE WAIT UNTIL dscf HAS FINISHED.
Look for the output in slave1.output.
MACHINEFILE is ./hostlist
 this is node-proc. number 1 running on node c-5-41.local
 the total number of node-proc. spawned is  33
  parallel platform: MPP or cluster with fast interconnect

 dscf (c-5-41.local) : TURBOMOLE V7.2 ( 21471 ) 7 Nov 2017 at 16:15:16
 Copyright (C) 2017 TURBOMOLE GmbH, Karlsruhe


    2018-02-20 01:56:47.521 


 SCF run will be profiled !



                             d s c f - program

                   idea & directorship : reinhart ahlrichs
                   program development : marco haeser
                                         michael baer
                           dft version : oliver treutler
           parallelized version : malte v. arnim, gina corongiu, GMD 


                          quantum chemistry group
                          universitaet  karlsruhe
                                  germany




                          References             
                                                 
          TURBOMOLE:                             
              R. Ahlrichs, M. Baer, M. Haeser, H. Horn, and
              C. Koelmel
              Electronic structure calculations on workstation
              computers: the program system TURBOMOLE
              Chem. Phys. Lett. 162: 165 (1989)
          Density Functional:                              
              O. Treutler and R. Ahlrichs                      
              Efficient Molecular Numerical Integration Schemes
              J. Chem. Phys. 102: 346 (1995)                   
          Parallel Version:                                
              Performance of parallel TURBOMOLE for Density    
              Functional Calculations                          
              M. v. Arnim and R. Ahlrichs                      
              J. Comp. Chem. 19: 1746 (1998)                   
                                         




              +--------------------------------------------------+
              | Atomic coordinate, charge and isotop information |
              +--------------------------------------------------+

                    atomic coordinates            atom    charge  isotop
         12.63968419   -1.83655794    3.92503315    c      0.000     0
         -2.25399146   12.40612891   -3.12066365    c      0.000     0
         -3.48368066   13.22846418   -0.60607139    c      0.000     0
         13.36855989   -3.13342015    1.41975574    c      0.000     0
         13.97392769   -7.34067937   -0.86157106    c      0.000     0
         -7.55426512   13.28346425    1.98199251    c      0.000     0
         13.30824364   -6.01964491    1.62749182    c      0.000     0
         -6.30493728   12.58972413   -0.53497677    c      0.000     0
        -10.34524069   12.51900230    2.10836032    c      0.000     0
         14.04132936  -10.22875399   -0.64875191    c      0.000     0
         14.72168977  -11.52775376   -3.14435584    c      0.000     0
        -11.58322160   13.19003954    4.63749760    c      0.000     0
          7.26214364    7.44334532    0.37389783    c      0.000     0
         10.16900072    4.55782325    1.94636797    c      0.000     0
          4.24800977   10.20874905   -1.22059478    c      0.000     0
          9.16168310    9.35774791    0.24027616    c      0.000     0
         11.61194538    8.75852692    1.10109994    c      0.000     0
          8.47896153   11.73926330   -0.74813770    c      0.000     0
         10.60486617    2.07438114    2.65105425    n      0.000     0
          1.73236142   10.57117648   -1.81951641    n      0.000     0
         12.13905716    6.38497262    1.98520579    c      0.000     0
          6.05033859   12.18380976   -1.51511733    c      0.000     0
          0.60239562   12.62401322   -3.02594406    c      0.000     0
         12.77489485    1.02124647    3.69303787    c      0.000     0
          7.80093094    5.06240661    1.19259591    n      0.000     0
          4.82721126    7.90900287   -0.31723420    n      0.000     0
         14.64992682    2.23066688    4.31888007    o      0.000     0
          1.76594450   14.43289904   -3.88621635    o      0.000     0
          9.19505083    0.80703403    2.16408589    h      0.000     0
          0.49632027    9.21113866   -1.13922482    h      0.000     0
          5.43530276   13.96437471   -2.30404862    h      0.000     0
         13.97993125    5.83472281    2.67676001    h      0.000     0
         13.07579932   10.19974803    1.04611361    h      0.000     0
          9.90377742   13.21344517   -0.88841710    h      0.000     0
         -2.91254854   13.60269064   -4.67039156    h      0.000     0
         13.95961291   -2.38172896    5.41848586    h      0.000     0
         15.26671000   -2.51128256    0.86308818    h      0.000     0
         -3.18482075   15.26241626   -0.33449921    h      0.000     0
         12.05748428   -2.52518601   -0.06348195    h      0.000     0
         -2.54586542   12.25097943    0.95956155    h      0.000     0
         10.73009588   -2.43068121    4.45869432    h      0.000     0
         -2.79791835   10.44590615   -3.50501026    h      0.000     0
         -7.28459629   13.55917050   -2.09007228    h      0.000     0
         14.62959816   -6.63315295    3.10817161    h      0.000     0
         15.82367965   -6.66555720   -1.52311534    h      0.000     0
         -7.38058693   15.32788463    2.31296876    h      0.000     0
         -6.52495050   12.34861439    3.52492410    h      0.000     0
         12.60013600   -6.78666795   -2.31839087    h      0.000     0
         -6.52253530   10.55226821   -0.85722649    h      0.000     0
         11.41668948   -6.61728103    2.24164106    h      0.000     0
        -11.37841425   13.44195115    0.56151620    h      0.000     0
         15.41363989  -10.76848144    0.81223270    h      0.000     0
         12.19562020  -10.91181945    0.01013425    h      0.000     0
        -10.49590847   10.47589912    1.77858520    h      0.000     0
         16.59198942  -10.92861203   -3.80327060    h      0.000     0
        -11.49826031   15.23065722    4.98852070    h      0.000     0
        -10.61625845   12.24282217    6.20606934    h      0.000     0
         13.35336099  -11.05391683   -4.62501508    h      0.000     0
        -13.57341553   12.62074745    4.68274997    h      0.000     0
         14.75042165  -13.58771607   -2.94257793    h      0.000     0
         -5.09425181   -3.26446829    2.11259038    c      6.000     0
         -6.61040292   -4.75733874    0.08126498    c      6.000     0
         -8.50624721   -5.36569200    4.12616180    c      6.000     0
         -9.22036246   -5.17207366    1.33093207    c      6.000     0
         -5.51292655   -2.53359755   -6.39260694    c      6.000     0
        -14.43286098   -0.89761626   -0.45004351    c      6.000     0
         -2.35410965   -4.52102398   -3.44989424    c      6.000     0
          4.37590639   -6.00023831    1.27616147    c      6.000     0
        -13.03287656   -4.77920300   -2.80194771    c      6.000     0
         -6.00344632   -7.10497801   -5.13480051    c      6.000     0
        -14.89307840   -5.17845615    1.59366510    c      6.000     0
          5.11682730   -6.92592709   -1.36681123    c      6.000     0
         -5.12272030   -4.47703839   -4.29552647    c      6.000     0
        -13.30960613   -3.54496180   -0.19774985    c      6.000     0
         -7.90668881   -8.05053249    4.99471340    c      6.000     0
          6.20475335   -9.60716333   -1.31870471    c      6.000     0
          7.01852920  -10.52513555   -3.93954749    c      6.000     0
         -2.79238232    0.82253562    1.41526416    c      6.000     0
         -3.54304985    3.31676432    1.03872907    c      6.000     0
         -6.95253272    1.19069825    1.43942626    c      6.000     0
         -4.98743605   -0.54970802    1.68120087    n      7.000     0
          1.35596315    1.63005179    1.13262878    c      6.000     0
          0.82986576    4.12938093    0.75050968    n      7.000     0
          3.87741265    0.99531533    1.11521875    n      7.000     0
          3.38488039   -3.42702256    1.28339395    n      7.000     0
         -1.63547074    5.17945030    0.64860103    c      6.000     0
          4.94741263   -1.42660914    1.17850718    c      6.000     0
         -0.41115776   -0.10895343    1.47896618    n      7.000     0
         -6.15541399    3.50769437    1.06283321    n      7.000     0
        -10.82511939   -3.06362886    0.91742552    o      8.000     0
         -6.77249515   -3.55135046   -2.27580874    o      8.000     0
         -6.25302482   -3.83161432    4.47089994    o      8.000     0
          7.28768336   -1.63511226    1.12514915    o      8.000     0
         -1.89907835    7.46450682    0.22664537    o      8.000     0
        -10.18549481   -9.49683427    4.73411143    o      8.000     0
          1.49483001   -3.02728986    1.37112338    h      1.000     0
          5.20485103    2.45085230    1.03941168    h      1.000     0
          2.30957988    5.40312756    0.41045353    h      1.000     0
         -3.11682656   -3.85761260    2.18339681    h      1.000     0
         -5.70908004   -6.61786383   -0.08283500    h      1.000     0
        -10.08568850   -6.92367859    0.66521240    h      1.000     0
         -9.93369499  -11.12185288    5.53882135    h      1.000     0
         -9.99874615   -4.55955899    5.30382850    h      1.000     0
         -8.89333078    0.57167588    1.54354772    h      1.000     0
          3.45551875   -6.85480819   -2.60813767    h      1.000     0
          6.02613770   -6.06387393    2.52264593    h      1.000     0
          6.51786291   -5.61396746   -2.14583799    h      1.000     0
          4.79769968  -10.91466672   -0.52880946    h      1.000     0
          7.83174237   -9.65402288   -0.03280241    h      1.000     0
          2.91320857   -7.21727828    2.09049035    h      1.000     0
         -1.76292955   -2.66346694   -2.76727156    h      1.000     0
         -7.26421341   -7.98831866    6.96555229    h      1.000     0
         -6.37700073   -8.85375861    3.83358097    h      1.000     0
        -11.78749503   -3.64157613   -3.99269589    h      1.000     0
         -4.93676908   -0.65926494   -5.74004732    h      1.000     0
         -2.03733749   -5.91390741   -1.94936531    h      1.000     0
         -7.50742333   -2.45646532   -6.92995982    h      1.000     0
         -1.14346513   -5.04750102   -5.04264172    h      1.000     0
         -7.98041441   -7.04009544   -5.73245357    h      1.000     0
        -13.25767009    0.26431640   -1.69205887    h      1.000     0
        -14.02786087   -7.03145404    1.90401046    h      1.000     0
        -14.53921644    0.01289615    1.40345776    h      1.000     0
        -14.88929190   -4.92650299   -3.70437412    h      1.000     0
        -15.09684589   -4.23930362    3.42506047    h      1.000     0
         -4.39569702   -3.03669200   -8.05887641    h      1.000     0
        -16.33957578   -1.00104686   -1.24444172    h      1.000     0
        -12.25298007   -6.69120057   -2.66662224    h      1.000     0
         -4.85334330   -7.77316186   -6.71992755    h      1.000     0
        -16.77964835   -5.47929086    0.79713712    h      1.000     0
         -5.82111117   -8.49059029   -3.60624988    h      1.000     0
          5.40915389  -10.56928448   -5.24309553    h      1.000     0
          8.44861836   -9.26522391   -4.74835848    h      1.000     0
          7.82454229  -12.42883904   -3.85538318    h      1.000     0
 
       center of nuclear mass  :    0.42380960    0.98282447    0.33145711
       center of nuclear charge:   -3.79469480   -2.90210974    0.17001430

              +--------------------------------------------------+
              |               basis set information              |
              +--------------------------------------------------+

              we will work with the 1s 3p 5d 7f 9g ... basis set
              ...i.e. with spherical basis functions...

   type   atoms  prim   cont   basis
   ---------------------------------------------------------------------------
    c       45     50     30   cc-pVTZ   [4s3p2d1f|18s5p2d1f]
    n       10     50     30   cc-pVTZ   [4s3p2d1f|18s5p2d1f]
    o        8     50     30   cc-pVTZ   [4s3p2d1f|18s5p2d1f]
    h       70     16     14   cc-pVTZ   [3s2p1d|5s2p1d]
   ---------------------------------------------------------------------------
   total:  133   4270   2870
   ---------------------------------------------------------------------------

   total number of primitive shells          :   86
   total number of contracted shells         : 1050
   total number of cartesian basis functions : 3255
   total number of SCF-basis functions       : 2870


 integral neglect threshold       :  0.10E-11
 integral storage threshold THIZE :  0.10E-04
 integral storage threshold THIME :         5


 DENSITY CONVERGENCE CHECK SWITCHED ON !
 SCF CONVERGENCE IF RMS(delta[D]) <     0.1000000000E-06


 symmetry group of the molecule :   c1 

 the group has the following generators :
   c1(z)

    1 symmetry operations found

 there are 1 real representations :   a   

 maximum number of shells which are related by symmetry :  1


    mo occupation :
   irrep   mo's   occupied
    a     2870      133
 
 number of basis functions   :                   2870
 number of occupied orbitals :                    133
 

 automatic virtual orbital shift switched on 
      shift if e(lumo)-e(homo) < 0.10000000    


 keyword $2e-ints_shell_statistics missing in file <control>

 ! One task per shell generated
  No pre-computed optimal task distribution found
  ... using automatic task generation

          ------------------------
          nuclear repulsion energy  :   4176.20721317    
          ------------------------


         -----------------
         -S,T+V- integrals
         -----------------

 1e-integrals will be neglected if expon. factor < 0.102672E-12
 
   Difference densities algorithm switched on.
   The maximal number of linear combinations of
   difference densities is                    20 .

 DIIS switched on: error vector is FDS-SDF
 Max. Iterations for DIIS is     :   5
 DIIS matrix (see manual) 
    Scaling factor of diagonals  :  1.200
    threshold for scaling factor :  0.000

 scf convergence criterion : increment of total energy < .1000000D-06
                  and increment of one-electron energy < .1000000D-03

  MOs are in ASCII format !


 reading orbital data $scfmo  from file mos
 orbital characterization : expanded
 mo provided and orthogonalized by Cholesky decomposition

 DSCF restart information will be dumped onto file mos

 
                                              current damping :  0.300
 ITERATION  ENERGY          1e-ENERGY        2e-ENERGY     RMS[dD(SAO)]   TOL
   1  -1663.0405018556    -10551.095081     4711.8473663    0.000D+00 0.102D-11
          max. resid. norm for Fia-block=  3.302D-01 for orbital      7a         
          max. resid. fock norm         =  1.099D+01 for orbital   2725a         
          Delta Eig. =  1213.7522182954 eV 
 
                                              current damping :  0.250
 ITERATION  ENERGY          1e-ENERGY        2e-ENERGY     RMS[dD(SAO)]   TOL
   2  -1668.8928263365    -10586.736410     4741.6363708    0.127D-02 0.681D-12
          Norm of current diis error:  3.8785    
          max. resid. norm for Fia-block=  1.281D-01 for orbital      6a         
          max. resid. fock norm         =  3.666D-01 for orbital   2841a         
          Delta Eig. =   290.9104975886 eV 
 
                                              current damping :  0.150
 ITERATION  ENERGY          1e-ENERGY        2e-ENERGY     RMS[dD(SAO)]   TOL
   3  -1669.4522064370    -10592.632491     4746.9730713    0.511D-03 0.549D-12
          Norm of current diis error:  1.4287    
          max. resid. norm for Fia-block=  4.457D-02 for orbital    130a         
          max. resid. fock norm         =  5.050D-02 for orbital    130a         
          Delta Eig. =    63.2927367090 eV 
 
                                              current damping :  0.100
 ITERATION  ENERGY          1e-ENERGY        2e-ENERGY     RMS[dD(SAO)]   TOL
   4  -1669.5584987956    -10593.608529     4747.8428167    0.310D-03 0.467D-12
          Norm of current diis error: 0.41505    
          max. resid. norm for Fia-block=  1.899D-02 for orbital    130a         
          max. resid. fock norm         =  3.364D-02 for orbital   2658a         
          Delta Eig. =     8.6167540723 eV 
 
                                              current damping :  0.100
 ITERATION  ENERGY          1e-ENERGY        2e-ENERGY     RMS[dD(SAO)]   TOL
   5  -1669.5686016082    -10594.394233     4748.6184181    0.933D-04 0.436D-12
          Norm of current diis error: 0.12832    
          max. resid. norm for Fia-block=  5.551D-03 for orbital    128a         
          max. resid. fock norm         =  9.733D-03 for orbital   2612a         
 mo-orthogonalization: Cholesky decomposition
          Delta Eig. =     0.7912624020 eV 
 
                                              current damping :  0.100
 ITERATION  ENERGY          1e-ENERGY        2e-ENERGY     RMS[dD(SAO)]   TOL
   6  -1669.5697937413    -10594.415690     4748.6386833    0.343D-04 0.416D-12
          Norm of current diis error: 0.49605E-01
          max. resid. norm for Fia-block=  2.303D-03 for orbital    129a         
          max. resid. fock norm         =  3.844D-03 for orbital   2612a         
          Delta Eig. =     0.2902276759 eV 
 
                                              current damping :  0.150
 ITERATION  ENERGY          1e-ENERGY        2e-ENERGY     RMS[dD(SAO)]   TOL
   7  -1669.5699945105    -10594.352861     4748.5756532    0.129D-04 0.401D-12
          Norm of current diis error: 0.19002E-01
          max. resid. norm for Fia-block=  1.308D-03 for orbital    133a         
          max. resid. fock norm         =  1.381D-03 for orbital    133a         
          Delta Eig. =     0.0652932366 eV 
 
                                              current damping :  0.200
 ITERATION  ENERGY          1e-ENERGY        2e-ENERGY     RMS[dD(SAO)]   TOL
   8  -1669.5700339754    -10594.401369     4748.6241215    0.472D-05 0.386D-12
          Norm of current diis error: 0.80222E-02
          max. resid. norm for Fia-block=  6.786D-04 for orbital    133a         
          max. resid. fock norm         =  6.926D-04 for orbital    133a         
          Delta Eig. =     0.0284125295 eV 
 
                                              current damping :  0.250
 ITERATION  ENERGY          1e-ENERGY        2e-ENERGY     RMS[dD(SAO)]   TOL
   9  -1669.5700426974    -10594.391042     4748.6137857    0.224D-05 0.373D-12
          Norm of current diis error: 0.35992E-02
          max. resid. norm for Fia-block=  4.509D-04 for orbital    133a         
          max. resid. fock norm         =  4.603D-04 for orbital    133a         
          Delta Eig. =     0.0072251750 eV 
 
                                              current damping :  0.300
 ITERATION  ENERGY          1e-ENERGY        2e-ENERGY     RMS[dD(SAO)]   TOL
  10  -1669.5700448560    -10594.394095     4748.6168366    0.107D-05 0.359D-12
          Norm of current diis error: 0.19357E-02
          max. resid. norm for Fia-block=  2.568D-04 for orbital    133a         
          max. resid. fock norm         =  2.590D-04 for orbital    133a         
 mo-orthogonalization: Cholesky decomposition
          Delta Eig. =     0.0087230482 eV 
 
                                              current damping :  0.150
 ITERATION  ENERGY          1e-ENERGY        2e-ENERGY     RMS[dD(SAO)]   TOL
  11  -1669.5700454623    -10594.395214     4748.6179552    0.643D-06 0.345D-12
          Norm of current diis error: 0.85648E-03
          max. resid. norm for Fia-block=  1.387D-04 for orbital    133a         
          max. resid. fock norm         =  1.413D-04 for orbital    133a         
          Delta Eig. =     0.0018376490 eV 
 
                                              current damping :  0.100
 ITERATION  ENERGY          1e-ENERGY        2e-ENERGY     RMS[dD(SAO)]   TOL
  12  -1669.5700456131    -10594.395591     4748.6183323    0.337D-06 0.331D-12
          Norm of current diis error: 0.44392E-03
          max. resid. norm for Fia-block=  6.291D-05 for orbital    133a         
          max. resid. fock norm         =  6.353D-05 for orbital    133a         
          Delta Eig. =     0.0032201845 eV 

 ENERGY & DENSITY CONVERGED !

 
                                              current damping :  0.100
 ITERATION  ENERGY          1e-ENERGY        2e-ENERGY     RMS[dD(SAO)]   TOL
  13  -1669.5700456444    -10594.395593     4748.6183345    0.193D-06 0.320D-12
          max. resid. norm for Fia-block=  1.332D-05 for orbital    133a         
          max. resid. fock norm         =  1.746D-05 for orbital    128a         

 convergence criteria satisfied after    13 iterations


                  ------------------------------------------ 
                 |  total energy      =  -1669.57004564441  |
                  ------------------------------------------ 
                 :  kinetic energy    =   1666.36489673968  :
                 :  potential energy  =  -3335.93494238409  :
                 :  virial theorem    =      1.99808025491  :
                 :  wavefunction norm =      1.00000000000  :
                  .......................................... 


 <geterg> : there is no data group $energy 


 <skperg> : $end is missing 


 orbitals $scfmo  will be written to file mos

    irrep                129a        130a        131a        132a        133a   
 eigenvalues H         -0.42425    -0.41430    -0.39403    -0.38987    -0.29812
            eV         -11.5445    -11.2737    -10.7221    -10.6089     -8.1124
 occupation              2.0000      2.0000      2.0000      2.0000      2.0000 

    irrep                134a        135a        136a        137a        138a   
 eigenvalues H          0.05631     0.06161     0.07959     0.08570     0.09645
            eV           1.5322      1.6764      2.1658      2.3321      2.6245
 
 
 
 
 ==============================================================================
                           electrostatic moments
 ==============================================================================

 reference point for electrostatic moments:    0.00000   0.00000   0.00000

 
              nuc           elec       ->  total
 ------------------------------------------------------------------------------
                          charge      
 ------------------------------------------------------------------------------
         266.000000    -266.000000       0.000000
 
 ------------------------------------------------------------------------------
                       dipole moment  
 ------------------------------------------------------------------------------
   x   -1009.388817    1008.797644      -0.591173
   y    -771.961192     768.053953      -3.907239
   z      45.223803     -45.542665      -0.318862
 
   | dipole moment | =     3.9646 a.u. =    10.0769 debye 
 
 ------------------------------------------------------------------------------
                     quadrupole moment
 ------------------------------------------------------------------------------
  xx   14901.704880  -15061.677103    -159.972223
  yy    7269.062083   -7421.578630    -152.516547
  zz    2130.741416   -2284.627968    -153.886551
  xy    3230.293950   -3200.520258      29.773693
  xz    -728.282019     727.728716      -0.553304
  yz     258.210053    -262.334872      -4.124818
 
     1/3  trace=    -155.458440
     anisotropy=      52.522651
 
 ==============================================================================
 

    dscf profiling
  --------------------------------------------------------------------
             module   cpu total (s)       %  wall total (s)       %

          dscf.total          4286.1  100.00          3707.5  100.00
        dscf.prepare            27.3    0.64            27.4    0.74
      prepare.oneint             0.3    0.01             0.3    0.01
     prepare.moinput             0.3    0.01             0.3    0.01
     moinput_orthmos            26.5    0.62            26.5    0.71
            dscf.scf          4257.5   99.33          3678.7   99.22
             scf.pre             0.0    0.00             0.1    0.00
        scf.makedmat            10.0    0.23            10.4    0.28
          scf.shloop          3187.3   74.36          3184.5   85.89
          shloop_omp          3186.2   74.34          3183.3   85.86
          scf.symcar             1.4    0.03             1.4    0.04
        scf.makefock             2.5    0.06             3.3    0.09
          scf.newerg             0.1    0.00             0.1    0.00
          scf.newcnv           177.6    4.14            22.5    0.61
           scf.fdiag           441.3   10.30            55.3    1.49
         diag_tritrn           122.8    2.87            15.4    0.41
          diag_rdiag           310.1    7.23            38.8    1.05
          scf.modump           367.9    8.58           354.8    9.57
           ortho_all            36.9    0.86            16.1    0.43
            scf.post            30.9    0.72            29.9    0.81
        dscf.postscf             1.3    0.03             1.4    0.04
 


    ------------------------------------------------------------------------
         total  cpu-time :  1 hours 11 minutes and 27 seconds
         total wall-time :  1 hours  1 minutes and 49 seconds
    ------------------------------------------------------------------------

   ****  dscf : all done  ****


    2018-02-20 02:58:35.110 

