 operating system is UNIX !

 ridft (c-9-411.gp.local) : TURBOMOLE V7.2 ( 21454 ) 4 Oct 2017 at 12:48:15
 Copyright (C) 2017 TURBOMOLE GmbH, Karlsruhe


    2018-05-18 15:36:29.422 



                                  r i d f t

                        DFT program with RI approximation 
                                for coulomb part 




                                                 
                                 References:     
                                                 
          TURBOMOLE:                             
              R. Ahlrichs, M. Baer, M. Haeser, H. Horn, and
              C. Koelmel
              Electronic structure calculations on workstation
              computers: the program system TURBOMOLE
              Chem. Phys. Lett. 162: 165 (1989)
          Density Functional:                              
              O. Treutler and R. Ahlrichs                      
              Efficient Molecular Numerical Integration Schemes
              J. Chem. Phys. 102: 346 (1995)                   
          Parallel Version:                                
              Performance of parallel TURBOMOLE for Density    
              Functional Calculations                          
              M. v. Arnim and R. Ahlrichs                      
              J. Comp. Chem. 19: 1746 (1998)                   
          RI-J Method:                                     
              Auxiliary Basis Sets to approximate Coulomb      
              Potentials                                       
              Chem. Phys. Lett. 240: 283 (1995)                
              K. Eichkorn, O. Treutler, H. Oehm, M. Haeser     
              and R. Ahlrichs                                  
              Chem. Phys. Lett. 242: 652 (1995)                
                                                           
              Auxiliary Basis Sets for Main Row Atoms and their
              Use to approximate Coulomb Potentials            
              K. Eichkorn, F. Weigend, O. Treutler and         
              R. Ahlrichs                                      
              Theo. Chem. Acc. 97: 119 (1997)                   
                                                           
              Accurate Coulomb-fitting basis sets for H to Rn 
              F. Weigend                                        
              Phys. Chem. Chem. Phys. 8: 1057 (2006)            
                                                           
          Multipole accelerated RI-J (MARI-J):             
              Fast evaluation of the Coulomb potential for     
              electron densities using multipole accelerated   
              resolution of identity approximation             
              M. Sierka, A. Hogekamp and R. Ahlrichs           
              J. Chem. Phys. 118: 9136 (2003)                  
          RI-JK Method:                                     
              A fully direct RI-HF algorithm: Implementation,
              optimised auxiliary basis sets, demonstration of
              accuracy and efficiency                         
              F. Weigend                                      
              Phys. Chem. Chem. Phys. 4: 4285 (2002)           
          Two-component HF and DFT with spin-orbit coupling:  
              Self-consistent treatment of spin-orbit         
              interactions with efficient Hartree-Fock and    
              density functional methods                      
              M. K. Armbruster, F. Weigend, C. van Wüllen and 
              W. Klopper                                      
              Phys. Chem. Chem. Phys. 10: 1748 (2008)         
          Relativistic all-electron 2c calculations           
              An efficient implementation of two-component    
              relativistic exact-decoupling methods for large 
              molecules                                       
              D. Peng, N. Middendorf, F. Weigend, M. Reiher   
              J. Chem. Phys. 138, 184105 (2013)               
                                         




              +--------------------------------------------------+
              |      general information about current run       |
              +--------------------------------------------------+

 
 PBE functional
 exchange:    LDA + PBE
 correlation: LDA (PW) + PBE
 A DFT calculation using the RI-J approximation will be carried out.
 Allocatable memory for RI due to $ricore (MB):                   500


              +--------------------------------------------------+
              | Atomic coordinate, charge and isotop information |
              +--------------------------------------------------+

                    atomic coordinates            atom    charge  isotop
          2.28799600    0.05418937    0.62306371    n      7.000     0
          1.15638950   -2.18915137    0.28998181    c      6.000     0
          2.36495050   -3.83524341    0.41440361    h      1.000     0
         -1.41977768   -2.47298927   -0.16787207    c      6.000     0
         -2.21176527   -4.34045397   -0.40323582    h      1.000     0
         -2.92504599   -0.32114057   -0.29567961    c      6.000     0
         -4.93409902   -0.46478701   -0.64015558    h      1.000     0
         -1.78318786    2.02320905    0.03746023    c      6.000     0
         -2.87014308    3.75016205   -0.02200402    h      1.000     0
          0.80827096    2.10913964    0.48631874    c      6.000     0
          1.74741939    3.90805141    0.75125682    h      1.000     0
 
       center of nuclear mass  :   -0.30226744   -0.13212970    0.16478085
       center of nuclear charge:   -0.35399457   -0.13591763    0.15626108

              +--------------------------------------------------+
              |               basis set information              |
              +--------------------------------------------------+

              we will work with the 1s 3p 5d 7f 9g ... basis set
              ...i.e. with spherical basis functions...

   type   atoms  prim   cont   basis
   ---------------------------------------------------------------------------
    n        1     77     57   def2-QZVP   [7s4p3d2f1g|15s8p3d2f1g]
    c        5     77     57   def2-QZVP   [7s4p3d2f1g|15s8p3d2f1g]
    h        5     33     30   def2-QZVP   [4s3p2d1f|7s3p2d1f]
   ---------------------------------------------------------------------------
   total:   11    627    492
   ---------------------------------------------------------------------------

   total number of primitive shells          :   71
   total number of contracted shells         :  152
   total number of cartesian basis functions :  607
   total number of SCF-basis functions       :  492


 integral neglect threshold       :  0.55E-13
 integral storage threshold THIZE :  0.10E-04
 integral storage threshold THIME :         5

 RI-J AUXILIARY BASIS SET information:

              we will work with the 1s 3p 5d 7f 9g ... basis set
              ...i.e. with spherical basis functions...

   type   atoms  prim   cont   basis
   ---------------------------------------------------------------------------
    n        1     70     49   def2-QZVP   [6s4p3d1f1g|12s5p4d2f1g]
    c        5     70     49   def2-QZVP   [6s4p3d1f1g|12s5p4d2f1g]
    h        5     16     11   def2-QZVP   [3s1p1d|5s2p1d]
   ---------------------------------------------------------------------------
   total:   11    500    349
   ---------------------------------------------------------------------------

   total number of primitive shells          :   56
   total number of contracted shells         :  115
   total number of cartesian basis functions :  426
   total number of SCF-basis functions       :  349


 symmetry group of the molecule :   c1 

 the group has the following generators :
   c1(z)

    1 symmetry operations found

 there are 1 real representations :   a   

 maximum number of shells which are related by symmetry :  1


    mo occupation :
   irrep   mo's   occupied
    a      492       21
 
 number of basis functions   :                    492
 number of occupied orbitals :                     21
 
  
           ------------------
           density functional
           ------------------
 PBE functional
 exchange:    LDA + PBE
 correlation: LDA (PW) + PBE

 iterations will be done with small grid
  
 spherical integration : Lebedev's spherical grid
 spherical gridsize    :                     5
    i.e. gridpoints    :                   590
 value for diffuse not defined
 radial integration    : Chebyshev 2nd kind (scaling 3)
 radial gridsize       :                     8
 integration cells     :                    11
 partition function    : becke
 partition sharpness   :                     3
  

 biggest AO integral is expected to be     6.129561670
  
           ------------------------
               RI-J - INFORMATION
           ------------------------
 Contributions to RI integral batches: 
  neglected integral batches:                  1198
  direct contribution:                         1090
  memory contribution:                  9340
 Memory core needed for (P|Q) and Cholesky      1 MByte
 Memory core minimum needed except of (P|Q)     2 MByte
 Total minimum memory core needed (sum)         3 MByte
  
 ****************************************
 Memory allocated for RI-J   445 MByte
 ****************************************
                                            

          ------------------------
          nuclear repulsion energy  :   206.160400215    
          ------------------------


         -----------------
         -S,T+V- integrals
         -----------------

 1e-integrals will be neglected if expon. factor < 0.550570E-14
 
   Difference densities algorithm switched on.
   The maximal number of linear combinations of
   difference densities is                    20 .

 DIIS switched on: error vector is FDS-SDF
 Max. Iterations for DIIS is     :   4
 DIIS matrix (see manual) 
    Scaling factor of diagonals  :  1.200
    threshold for scaling factor :  0.000

 scf convergence criterion : increment of total energy < .1000000D-08
                  and increment of one-electron energy < .1000000D-05

  MOs are in ASCII format !


 automatic virtual orbital shift switched on 
      shift if e(lumo)-e(homo) < 0.10000000    


 reading orbital data $scfmo  from file mos
 orbital characterization : expanded
 mo provided and orthogonalized by Cholesky decomposition

 DSCF restart information will be dumped onto file mos


 Starting SCF iterations

          Overall gridpoints after grid construction =         54798

 ITERATION  ENERGY          1e-ENERGY        2e-ENERGY     NORM[dD(SAO)]  TOL
   1  -247.08459839375    -732.79907775     279.55407915    0.000D+00 0.549D-13
                            Exc = -34.7657597603     Coul =  314.319838905    
                              N = 42.000006748    
                            current damping = 0.700
 
          max. resid. norm for Fia-block=  5.818D-01 for orbital      7a         
          max. resid. fock norm         =  5.057D+01 for orbital    441a         

 ITERATION  ENERGY          1e-ENERGY        2e-ENERGY     NORM[dD(SAO)]  TOL
   2  -247.89008293877    -739.20380406     285.15332090    0.161D+01 0.453D-13
                            Exc = -35.2698995067     Coul =  320.423220411    
                              N = 42.000005080    
                            current damping = 0.650
 
          Norm of current diis error:  2.8927    
          max. resid. norm for Fia-block=  1.367D-01 for orbital      1a         
          max. resid. fock norm         =  2.182D-01 for orbital    455a         

 ITERATION  ENERGY          1e-ENERGY        2e-ENERGY     NORM[dD(SAO)]  TOL
   3  -248.02233730601    -740.76434397     286.58160645    0.640D+00 0.309D-13
                            Exc = -35.4566693997     Coul =  322.038275850    
                              N = 42.000004057    
                            current damping = 0.550
 
          Norm of current diis error:  1.4165    
          max. resid. norm for Fia-block=  5.624D-02 for orbital     21a         
          max. resid. fock norm         =  6.060D-02 for orbital      7a         

 ITERATION  ENERGY          1e-ENERGY        2e-ENERGY     NORM[dD(SAO)]  TOL
   4  -248.06616946748    -741.41159153     287.18502184    0.269D+00 0.247D-13
                            Exc = -35.5117397986     Coul =  322.696761642    
                              N = 42.000003894    
                            current damping = 0.450
 
          Norm of current diis error: 0.56629    
          max. resid. norm for Fia-block=  2.829D-02 for orbital      7a         
          max. resid. fock norm         =  4.807D-02 for orbital    475a         

 ITERATION  ENERGY          1e-ENERGY        2e-ENERGY     NORM[dD(SAO)]  TOL
   5  -248.07146741181    -742.10300798     287.87114035    0.111D+00 0.220D-13
                            Exc = -35.5862102157     Coul =  323.457350567    
                              N = 42.000003602    
                            current damping = 0.350
 
          Norm of current diis error: 0.35085    
          max. resid. norm for Fia-block=  1.420D-02 for orbital     21a         
          max. resid. fock norm         =  1.522D-02 for orbital     21a         
          mo-orthogonalization: Cholesky decomposition

 ITERATION  ENERGY          1e-ENERGY        2e-ENERGY     NORM[dD(SAO)]  TOL
   6  -248.07451474785    -741.91569851     287.68078355    0.853D-01 0.202D-13
                            Exc = -35.5708455759     Coul =  323.251629123    
                              N = 42.000003437    
                            current damping = 0.400
 
          Norm of current diis error: 0.13628    
          max. resid. norm for Fia-block=  3.473D-03 for orbital     20a         
          max. resid. fock norm         =  8.781D-03 for orbital    489a         

 ITERATION  ENERGY          1e-ENERGY        2e-ENERGY     NORM[dD(SAO)]  TOL
   7  -248.07489249324    -741.98584422     287.75055152    0.138D-01 0.198D-13
                            Exc = -35.5769666574     Coul =  323.327518174    
                              N = 42.000003379    
                            current damping = 0.450
 
          Norm of current diis error: 0.57359E-01
          max. resid. norm for Fia-block=  1.596D-03 for orbital     13a         
          max. resid. fock norm         =  4.449D-03 for orbital    489a         

 ITERATION  ENERGY          1e-ENERGY        2e-ENERGY     NORM[dD(SAO)]  TOL
   8  -248.07496180057    -742.02097275     287.78561074    0.453D-02 0.196D-13
                            Exc = -35.5806228734     Coul =  323.366233610    
                              N = 42.000003386    
                            current damping = 0.300
 
          Norm of current diis error: 0.11818E-01
          max. resid. norm for Fia-block=  3.273D-04 for orbital     21a         
          max. resid. fock norm         =  5.957D-04 for orbital    489a         

 ITERATION  ENERGY          1e-ENERGY        2e-ENERGY     NORM[dD(SAO)]  TOL
   9  -248.07496524522    -742.01364352     287.77827806    0.611D-03 0.194D-13
                            Exc = -35.5801465863     Coul =  323.358424645    
                              N = 42.000003375    
                            current damping = 0.350
 
          Norm of current diis error: 0.18579E-02
          max. resid. norm for Fia-block=  7.736D-05 for orbital     13a         
          max. resid. fock norm         =  1.895D-04 for orbital    491a         

 ITERATION  ENERGY          1e-ENERGY        2e-ENERGY     NORM[dD(SAO)]  TOL
  10  -248.07496525882    -742.01589224     287.78052676    0.321D-03 0.192D-13
                            Exc = -35.5802783728     Coul =  323.360805135    
                              N = 42.000003375    
                            current damping = 0.400
 
          Norm of current diis error: 0.16908E-02
          max. resid. norm for Fia-block=  5.215D-05 for orbital     20a         
          max. resid. fock norm         =  9.969D-05 for orbital    490a         
          mo-orthogonalization: Cholesky decomposition

 ITERATION  ENERGY          1e-ENERGY        2e-ENERGY     NORM[dD(SAO)]  TOL
  11  -248.07496530547    -742.01575298     287.78038746    0.746D-04 0.191D-13
                            Exc = -35.5802875420     Coul =  323.360675001    
                              N = 42.000003374    
                            current damping = 0.450
 
          Norm of current diis error: 0.85497E-03
          max. resid. norm for Fia-block=  2.904D-05 for orbital     19a         
          max. resid. fock norm         =  5.150D-05 for orbital    489a         

 ITERATION  ENERGY          1e-ENERGY        2e-ENERGY     NORM[dD(SAO)]  TOL
  12  -248.07496532200    -742.01509225     287.77972672    0.119D-04 0.189D-13
                            Exc = -35.5802355247     Coul =  323.359962242    
                              N = 42.000003374    
                            current damping = 0.300
 
          Norm of current diis error: 0.27793E-03
          max. resid. norm for Fia-block=  8.348D-06 for orbital     19a         
          max. resid. fock norm         =  1.518D-05 for orbital    489a         

 ITERATION  ENERGY          1e-ENERGY        2e-ENERGY     NORM[dD(SAO)]  TOL
  13  -248.07496532365    -742.01506369     287.77969815    0.168D-04 0.188D-13
                            Exc = -35.5802400587     Coul =  323.359938213    
                              N = 42.000003374    
                            current damping = 0.150
 
          Norm of current diis error: 0.78932E-04
          max. resid. norm for Fia-block=  2.425D-06 for orbital     17a         
          max. resid. fock norm         =  3.145D-06 for orbital     15a         

 ITERATION  ENERGY          1e-ENERGY        2e-ENERGY     NORM[dD(SAO)]  TOL
  14  -248.07496532373    -742.01523698     287.77987144    0.670D-05 0.187D-13
                            Exc = -35.5802491931     Coul =  323.360120634    
                              N = 42.000003374    
                            current damping = 0.200
 
          Norm of current diis error: 0.42402E-04
          max. resid. norm for Fia-block=  9.838D-07 for orbital     20a         
          max. resid. fock norm         =  1.877D-06 for orbital    490a         

 ITERATION  ENERGY          1e-ENERGY        2e-ENERGY     NORM[dD(SAO)]  TOL
  15  -248.07496532377    -742.01518668     287.77982114    0.136D-05 0.186D-13
                            Exc = -35.5802464933     Coul =  323.360067634    
                              N = 42.000003374    
                            current damping = 0.250
 
          Norm of current diis error: 0.14468E-04
          max. resid. norm for Fia-block=  4.381D-07 for orbital     21a         
          max. resid. fock norm         =  7.971D-07 for orbital    489a         
          mo-orthogonalization: Cholesky decomposition

 ITERATION  ENERGY          1e-ENERGY        2e-ENERGY     NORM[dD(SAO)]  TOL
  16  -248.07496532378    -742.01516681     287.77980127    0.658D-06 0.186D-13
                            Exc = -35.5802449234     Coul =  323.360046194    
                              N = 42.000003374    
                            current damping = 0.100
 
          Norm of current diis error: 0.71478E-05
          max. resid. norm for Fia-block=  1.797D-07 for orbital     21a         
          max. resid. fock norm         =  3.101D-07 for orbital    488a         

 ITERATION  ENERGY          1e-ENERGY        2e-ENERGY     NORM[dD(SAO)]  TOL
  17  -248.07496532377    -742.01517681     287.77981127    0.124D-06 0.185D-13
                            Exc = -35.5802457990     Coul =  323.360057068    
                              N = 42.000003374    
                            current damping = 0.150
 
          Norm of current diis error: 0.30226E-05
          max. resid. norm for Fia-block=  7.309D-08 for orbital     20a         
          max. resid. fock norm         =  1.666D-07 for orbital    488a         

 ENERGY CONVERGED !

          Overall gridpoints after grid construction =        176113

 ITERATION  ENERGY          1e-ENERGY        2e-ENERGY     NORM[dD(SAO)]  TOL
  18  -248.07495323198    -742.01517709     287.77982365    0.131D-07 0.184D-13
                            Exc = -35.5802337240     Coul =  323.360057371    
                              N = 41.999998582    
                            current damping = 0.050
 
          Norm of current diis error: 0.10951E-05
          max. resid. norm for Fia-block=  2.674D-08 for orbital     21a         
          max. resid. fock norm         =  3.441D-08 for orbital    488a         

 End of SCF iterations

   convergence criteria satisfied after    18 iterations


                  ------------------------------------------ 
                 |  total energy      =   -248.07495323198  |
                  ------------------------------------------ 
                 :  kinetic energy    =    247.03089526269  :
                 :  potential energy  =   -495.10584849468  :
                 :  virial theorem    =      1.99579136081  :
                 :  wavefunction norm =      1.00000000000  :
                  .......................................... 


 <geterg> : there is no data group $energy 


 <skperg> : $end is missing 


 orbitals $scfmo  will be written to file mos

    irrep                 17a         18a         19a         20a         21a   
 eigenvalues H         -0.36142    -0.32391    -0.26852    -0.24647    -0.21810
            eV          -9.8349     -8.8141     -7.3069     -6.7067     -5.9349
 occupation              2.0000      2.0000      2.0000      2.0000      2.0000 

    irrep                 22a         23a         24a         25a         26a   
 eigenvalues H         -0.06906    -0.05533     0.00514     0.02953     0.03981
            eV          -1.8791     -1.5056      0.1399      0.8037      1.0833
 
 
 
 
 ==============================================================================
                           electrostatic moments
 ==============================================================================

 reference point for electrostatic moments:    0.00000   0.00000   0.00000

 
              nuc           elec       ->  total
 ------------------------------------------------------------------------------
                          charge      
 ------------------------------------------------------------------------------
          42.000000     -42.000000       0.000000
 
 ------------------------------------------------------------------------------
                       dipole moment  
 ------------------------------------------------------------------------------
   x     -14.867772      14.006382      -0.861389
   y      -5.708540       5.645853      -0.062688
   z       6.562966      -6.708868      -0.145903
 
   | dipole moment | =     0.8759 a.u. =     2.2263 debye 
 
 ------------------------------------------------------------------------------
                     quadrupole moment
 ------------------------------------------------------------------------------
  xx     177.217667    -203.850534     -26.632867
  yy     180.440011    -202.615891     -22.175880
  zz       6.652095     -34.732721     -28.080627
  xy      -0.147819      -0.139934      -0.287754
  xz      26.974353     -26.964599       0.009754
  yz       9.408942      -9.126427       0.282515
 
     1/3  trace=     -25.629791
     anisotropy=       5.376013
 
 ==============================================================================
 


    ------------------------------------------------------------------------
         total  cpu-time :  1 minutes and 37 seconds
         total wall-time :  6 minutes and 16 seconds
    ------------------------------------------------------------------------

   ****  ridft : all done  ****


    2018-05-18 15:42:45.471 

