
   OpenMP run-time library returned nthreads = 28

 ricc2 (c-16-33) : TURBOMOLE V7.3 ( 22142 ) 4 Jul 2018 at 18:12:42
 Copyright (C) 2018 TURBOMOLE GmbH, Karlsruhe


    2019-03-14 21:13:40.387 



                              R I C C 2 - PROGRAM

                          the quantum chemistry groups
                             at the universities in
                           Karlsruhe, Bochum & Mainz
                                   Germany



   *-----------------------------------------------------------------------*
   |                     program will use 28 thread(s)                     |
   *-----------------------------------------------------------------------*


              +--------------------------------------------------+
              | Atomic coordinate, charge and isotop information |
              +--------------------------------------------------+

                    atomic coordinates            atom    charge  isotop
          0.45225024   -0.84580528   -2.67538841    c      6.000     0
          0.39459213   -0.96458343    2.64450498    c      6.000     0
          2.65068144   -1.59445664    1.27425079    c      6.000     0
          2.67838650   -1.53842875   -1.28668131    c      6.000     0
         -1.86312907   -0.39368195    1.25325411    c      6.000     0
         -1.83502433   -0.33633433   -1.30877236    c      6.000     0
          0.39835682   -0.91584286    5.28048328    c      6.000     0
          0.51180813   -0.67721549   -5.30584722    c      6.000     0
          2.77402361   -1.11680390   -6.67834118    c      6.000     0
         -1.67831952   -0.01779465   -6.70601427    c      6.000     0
          2.63210793   -1.41763333    6.67793288    c      6.000     0
         -1.82246115   -0.32547143    6.66297961    c      6.000     0
         -3.49875237    0.52904976   -7.81566922    n      7.000     0
          4.65792050   -1.46517054   -7.76197770    n      7.000     0
          4.49465740   -1.81660459    7.78080392    n      7.000     0
         -3.66774209    0.16586375    7.75746116    n      7.000     0
          4.38153149   -2.03474681   -2.30488992    h      1.000     0
          4.33175845   -2.13518022    2.30621546    h      1.000     0
         -3.59288106    0.00412870    2.26777285    h      1.000     0
         -3.54226819    0.10761482   -2.34209481    h      1.000     0
 
       center of nuclear mass  :    0.45539133   -0.79418034   -0.01292274
       center of nuclear charge:    0.45423424   -0.79837045   -0.01302408

              +--------------------------------------------------+
              |               basis set information              |
              +--------------------------------------------------+

              we will work with the 1s 3p 5d 7f 9g ... basis set
              ...i.e. with spherical basis functions...

   type   atoms  prim   cont   basis
   ---------------------------------------------------------------------------
    c       12     77     55   cc-pVQZ   [5s4p3d2f1g|21s6p3d2f1g]
    n        4     77     55   cc-pVQZ   [5s4p3d2f1g|21s6p3d2f1g]
    h        4     32     30   cc-pVQZ   [4s3p2d1f|6s3p2d1f]
   ---------------------------------------------------------------------------
   total:   20   1360   1000
   ---------------------------------------------------------------------------

   total number of primitive shells          :   78
   total number of contracted shells         :  280
   total number of cartesian basis functions : 1260
   total number of SCF-basis functions       : 1000


 symmetry group of the molecule :   c1 

 the group has the following generators :
   c1(z)

    1 symmetry operations found

 there are 1 real representations :   a   


   =========================================================================


     restricted closed shell calculation for the wavefunction models:
               MP2        - Second Order Moeller Plesset PT


     global parameters for ricc2 program:

        hard restart (reuse of interm.) :  enabled 
        soft restart (reuse of vectors) :  disabled
        threshold for vector function   :    0.100000E-05
        convergence threshold energy    :    0.100000E-06
        linear dependence threshold     :    0.100000E-13
        global print level              :      1
        maximum number of iterations    :   300
        maximum number DIIS vectors     :    10
        max. dim. of reduced space      :   100
        core memory limit (MB)          : 56000


     MP2 energy only: Energy will be calculated directly from T2 amplitudes!

     Scratch Directory : 


   =========================================================================

    der. integral neglect threshold  :  0.10E-07
    integral neglect threshold       :  0.26E-11
    integral storage threshold THIZE :  0.10E-04
    integral storage threshold THIME :         5


                  +------------------------------------------+
                  |     Auxiliary basis set information      |
                  +------------------------------------------+

              we will work with the 1s 3p 5d 7f 9g ... basis set
              ...i.e. with spherical basis functions...

   type   atoms  prim   cont   basis
   ---------------------------------------------------------------------------
    c       12    132    132   cc-pVQZ   [8s7p6d5f3g1h|8s7p6d5f3g1h]
    n        4    132    132   cc-pVQZ   [8s7p6d5f3g1h|8s7p6d5f3g1h]
    h        4     55     55   cc-pVQZ   [5s4p3d2f1g|5s4p3d2f1g]
   ---------------------------------------------------------------------------
   total:   20   2332   2332
   ---------------------------------------------------------------------------

   total number of primitive shells          :   75
   total number of contracted shells         :  540
   total number of cartesian basis functions : 3176
   total number of SCF-basis functions       : 2332


  ----------------------------------------------------------------------------
  hard_restart flag is disabled because the check sum for the
  auxiliary basis "$chkaux" differs from the reference value:
  reference value:     275083192.041985    
  computed value :     765704524.426461    
  relative error :     1.78353802259788    
  tolerance      :    0.100000000000000E-11
  the calculation will proceed...
  ----------------------------------------------------------------------------

 maximum number of shells which are related by symmetry :  1


 The symmetry information takes   1 MB

*---------------------------------------------------------------------*
|               simplified C1 algorithm will be applied               |
*---------------------------------------------------------------------*
  MOs are in ASCII format !


 reading orbital data $scfmo  from file mos
 orbital characterization : scfconv=7



              +--------------------------------------------+
              | list of orbitals that will be kept frozen: |
              +--------------------------------------------+
              |   irrep   index      energy     occ/vir    |
              +--------------------------------------------+
              |   a         1      -15.6201     occupied   |
              |   a         2      -15.6201     occupied   |
              |   a         3      -15.6201     occupied   |
              |   a         4      -15.6201     occupied   |
              |   a         5      -11.3669     occupied   |
              |   a         6      -11.3669     occupied   |
              |   a         7      -11.3599     occupied   |
              |   a         8      -11.3599     occupied   |
              |   a         9      -11.3225     occupied   |
              |   a        10      -11.3225     occupied   |
              |   a        11      -11.3224     occupied   |
              |   a       ...        ...        occupied   |
              |   a        16      -11.3177     occupied   |
              +--------------------------------------------+



   Molecular Orbital Statistic:
   ============================

   -----------------------------
   orbitals in total:
   -----------------------------
    frozen occupied :     16
    active occupied :     36
    active virtual  :    948
    frozen virtual  :      0
    all together    :   1000
   -----------------------------


     time in riccmos       cpu: 11.50 sec    wall:  1.19 sec    ratio:  9.7

     total memory allocated for calculation of (Q|P)**(-1/2) : 63 MiB


     calculation of (P|Q) ...
     time in lp2sym        cpu:  5.93 sec    wall:  0.21 sec    ratio: 28.0


     calculation of the Cholesky decomposition of (P|Q)**(-1) ...
     time in invmetri      cpu: 25.98 sec    wall:  1.13 sec    ratio: 22.9

   threshold for RMS(d[D]) in SCF was     :  0.10E-06
   integral neglect threshold             :  0.26E-11
   derivative integral neglect threshold  :  0.10E-07


   =========================================================================

     Energy of reference wave function is  -674.7052836839000
     Maximum orbital residual is           0.1213767169312E-04


     Number of symmetry-nonredundant auxiliary basis functions:     2332

     Block lengths for integral files:
        frozen occupied (BOI):        1 MiB
        active occupied (BJI):        1 MiB
        active virtual  (BAI):       17 MiB
        frozen virtual  (BGI):        0 MiB
               general  (BTI):       18 MiB

   =========================================================================




   **************************************************************************
   *                                                                        *
   *          OPTIMIZATION OF THE GROUND STATE CLUSTER AMPLITUDES           *
   *                                                                        *
   **************************************************************************


   Iter.   MP2 energy       Norm(Omega)   Norm(t1)  Norm(t2)     cpu    wall
   ...........................................................................
    1   -677.4521633701     ------          0.00000   0.57696   28.11    1.03
   ...........................................................................


     time in total         cpu: 28 min  7 s  wall:  1 min  2 s  ratio: 27.3


     **********************************************************************
     *                                                                    *
     *   RHF  energy                             :   -674.7052836839      *
     *   MP2 correlation energy (doubles)        :     -2.7468796862      *
     *                                                                    *
     *   Final MP2 energy                        :   -677.4521633701      *
     *                                                                    *
     *    E(S)   =     -1.6937980888      E(T)   =     -1.0530815974      *
     *    E(OS)  =     -2.0448252879      E(SS)  =     -0.7020543983      *
     *                                                                    *
     *   SCS-MP2 energy                          :   -677.3930921622      *
     *   (computed with  C(OS) =   1.2000  and  C(SS) =   0.3333)         *
     *                                                                    *
     *   SOS-MP2 energy                          :   -677.3635565582      *
     *   (computed with  C(OS) =   1.3000)                                *
     *                                                                    *
     *   Norm of MP1 T2 amplitudes               :      0.5769554240      *
     *                                                                    *
     **********************************************************************



    ------------------------------------------------------------------------
         total  cpu-time : 32 minutes and 18 seconds
         total wall-time :  1 minutes and 13 seconds
    ------------------------------------------------------------------------

   ****  ricc2 : all done  ****


    2019-03-14 21:14:53.809 

