
   OpenMP run-time library returned nthreads = 28
 operating system is UNIX !

 dscf (c-19-412) : TURBOMOLE V7.3 ( 22142 ) 4 Jul 2018 at 18:12:42
 Copyright (C) 2018 TURBOMOLE GmbH, Karlsruhe


    2019-03-26 13:21:34.474 



                             d s c f - program

                   idea & directorship : reinhart ahlrichs
                   program development : marco haeser
                                         michael baer
                           dft version : oliver treutler


                          quantum chemistry group
                          universitaet  karlsruhe
                                  germany




                          References             
                                                 
          TURBOMOLE:                             
              R. Ahlrichs, M. Baer, M. Haeser, H. Horn, and
              C. Koelmel
              Electronic structure calculations on workstation
              computers: the program system TURBOMOLE
              Chem. Phys. Lett. 162: 165 (1989)
          Density Functional:                              
              O. Treutler and R. Ahlrichs                      
              Efficient Molecular Numerical Integration Schemes
              J. Chem. Phys. 102: 346 (1995)                   
          Parallel Version:                                
              Performance of parallel TURBOMOLE for Density    
              Functional Calculations                          
              M. v. Arnim and R. Ahlrichs                      
              J. Comp. Chem. 19: 1746 (1998)                   
                                         




              +--------------------------------------------------+
              | Atomic coordinate, charge and isotop information |
              +--------------------------------------------------+

                    atomic coordinates            atom    charge  isotop
         39.18725082   24.74029453    4.00810913    c      6.000     0
         37.91546513   22.14948000    3.77378309    c      6.000     0
         35.03363278   22.26853275    4.05535228    c      6.000     0
         33.74294983   19.68527713    3.82102624    c      6.000     0
         30.85922775   19.81566823    4.07613927    c      6.000     0
         29.56287562   17.23808178    3.82858515    c      6.000     0
         26.67726382   17.37792152    4.05535228    c      6.000     0
         25.37335279   14.80600425    3.78890090    c      6.000     0
         22.48774098   14.95907207    3.99866050    c      6.000     0
         21.17249159   12.39093425    3.72653993    c      6.000     0
         18.28876951   12.55534043    3.93818926    c      6.000     0
         16.96218177    9.99287179    3.67551733    c      6.000     0
         14.08034942   10.16483687    3.90606392    c      6.000     0
         12.74809249    7.60425796    3.66417897    c      6.000     0
          9.86814987    7.77811276    3.92685090    c      6.000     0
          8.53400322    5.21564413    3.71142212    c      6.000     0
          5.65595032    5.38571948    4.00621940    c      6.000     0
          4.34070093    2.81380221    3.80590843    c      6.000     0
          2.28845835    3.00088510    4.00432968    h      1.000     0
         38.81875422   25.57933293    5.86570992    h      1.000     0
         41.23760367   24.59667535    3.76811391    h      1.000     0
         38.46915489   26.04798502    2.57191727    h      1.000     0
         38.38222749   21.31233133    1.93318983    h      1.000     0
         38.68647339   20.86635596    5.21186467    h      1.000     0
         34.56120124   23.10568143    5.89594553    h      1.000     0
         34.26073479   23.55165679    2.61538097    h      1.000     0
         34.22860944   18.84245927    1.98610217    h      1.000     0
         34.50073001   18.40782226    5.27044618    h      1.000     0
         30.37356813   20.65281691    5.91484280    h      1.000     0
         30.10333730   21.10257173    2.63238850    h      1.000     0
         30.06365305   16.39337420    1.99744052    h      1.000     0
         30.30175854   15.95495774    5.28556399    h      1.000     0
         26.17648639   18.21318047    5.89027636    h      1.000     0
         25.94216035   18.67049419    2.60593234    h      1.000     0
         25.88168912   13.96507612    1.95964600    h      1.000     0
         26.09711790   13.51532130    5.24776947    h      1.000     0
         21.97940465   15.79433102    5.83169485    h      1.000     0
         21.76586560   16.25353447    2.54546110    h      1.000     0
         21.67893820   11.55189585    1.89728504    h      1.000     0
         21.89247725   11.09647185    5.18351878    h      1.000     0
         17.78610236   13.39626856    5.76933388    h      1.000     0
         17.56878386   13.85169255    2.48310014    h      1.000     0
         17.45540029    9.14816421    1.84248298    h      1.000     0
         17.68594688    8.69651966    5.12871672    h      1.000     0
         13.59468980   11.01521363    5.73909827    h      1.000     0
         13.35280485   11.45740954    2.45286452    h      1.000     0
         13.21863430    6.75577093    1.82925490    h      1.000     0
         13.48697541    6.31168528    5.11359892    h      1.000     0
          9.40327724    8.63604843    5.76177498    h      1.000     0
          9.12359777    9.06312653    2.47743096    h      1.000     0
          8.98375804    4.35959819    1.87271860    h      1.000     0
          9.29178340    3.92874063    5.15517289    h      1.000     0
          5.21186467    6.24932432    5.84114348    h      1.000     0
          4.90005986    6.66506407    2.55868918    h      1.000     0
          4.72431533    1.92563093    1.97476381    h      1.000     0
          5.00966398    1.52500899    5.28367427    h      1.000     0
 
       center of nuclear mass  :   21.80461744   13.71954147    3.87638151
       center of nuclear charge:   21.80432023   13.71994240    3.87670844

              +--------------------------------------------------+
              |               basis set information              |
              +--------------------------------------------------+

              we will work with the 1s 3p 5d 7f 9g ... basis set
              ...i.e. with spherical basis functions...

   type   atoms  prim   cont   basis
   ---------------------------------------------------------------------------
    c       18     77     55   cc-pVQZ   [5s4p3d2f1g|21s6p3d2f1g]
    h       38     32     30   cc-pVQZ   [4s3p2d1f|6s3p2d1f]
   ---------------------------------------------------------------------------
   total:   56   2602   2130
   ---------------------------------------------------------------------------

   total number of primitive shells          :   45
   total number of contracted shells         :  650
   total number of cartesian basis functions : 2590
   total number of SCF-basis functions       : 2130


 integral neglect threshold       :  0.13E-13
 integral storage threshold THIZE :  0.10E-04
 integral storage threshold THIME :         5


 DENSITY CONVERGENCE CHECK SWITCHED ON !
 SCF CONVERGENCE IF RMS(delta[D]) <     0.1000000000E-06


 symmetry group of the molecule :   c1 

 the group has the following generators :
   c1(z)

    1 symmetry operations found

 there are 1 real representations :   a   

 maximum number of shells which are related by symmetry :  1


    mo occupation :
   irrep   mo's   occupied
    a     2130       73
 
 number of basis functions   :                   2130
 number of occupied orbitals :                     73
 

 automatic virtual orbital shift switched on 
      shift if e(lumo)-e(homo) < 0.10000000    


          ------------------------
          nuclear repulsion energy  :   1177.19691479    
          ------------------------


         -----------------
         -S,T+V- integrals
         -----------------

 1e-integrals will be neglected if expon. factor < 0.129033E-14
 
   Difference densities algorithm switched on.
   The maximal number of linear combinations of
   difference densities is                    20 .

 DIIS switched on: error vector is FDS-SDF
 Max. Iterations for DIIS is     :   5
 DIIS matrix (see manual) 
    Scaling factor of diagonals  :  1.200
    threshold for scaling factor :  0.000

 scf convergence criterion : increment of total energy < .1000000D-08
                  and increment of one-electron energy < .1000000D-05

  MOs are in ASCII format !


 reading orbital data $scfmo  from file mos
 orbital characterization : expanded
 mo provided and orthogonalized by Cholesky decomposition

 DSCF restart information will be dumped onto file mos

 
                                              current damping :  0.700
 ITERATION  ENERGY          1e-ENERGY        2e-ENERGY     RMS[dD(SAO)]   TOL
   1  -701.68070731644    -3260.7638676     1381.8862455    0.000D+00 0.129D-13
          max. resid. norm for Fia-block=  2.707D-01 for orbital     20a         
          max. resid. fock norm         =  6.904D+00 for orbital   1913a         
          Delta Eig. =   400.0962696892 eV 
 
                                              current damping :  0.650
 ITERATION  ENERGY          1e-ENERGY        2e-ENERGY     RMS[dD(SAO)]   TOL
   2  -703.38266819081    -3275.7599727     1395.1803897    0.138D-02 0.866D-14
          Norm of current diis error:  5.8253    
          max. resid. norm for Fia-block=  1.351D-01 for orbital     22a         
          max. resid. fock norm         =  1.430D-01 for orbital     21a         
          Delta Eig. =   173.4600913709 eV 
 
                                              current damping :  0.550
 ITERATION  ENERGY          1e-ENERGY        2e-ENERGY     RMS[dD(SAO)]   TOL
   3  -703.88256707532    -3281.9544276     1400.8749457    0.621D-03 0.655D-14
          Norm of current diis error:  2.7557    
          max. resid. norm for Fia-block=  6.754D-02 for orbital     32a         
          max. resid. fock norm         =  6.841D-02 for orbital     21a         
          Delta Eig. =    73.2460531528 eV 
 
                                              current damping :  0.450
 ITERATION  ENERGY          1e-ENERGY        2e-ENERGY     RMS[dD(SAO)]   TOL
   4  -704.02731612507    -3285.1595915     1403.9353606    0.325D-03 0.545D-14
          Norm of current diis error:  1.1515    
          max. resid. norm for Fia-block=  3.086D-02 for orbital     32a         
          max. resid. fock norm         =  3.091D-02 for orbital     32a         
          Delta Eig. =    27.8791457486 eV 
 
                                              current damping :  0.350
 ITERATION  ENERGY          1e-ENERGY        2e-ENERGY     RMS[dD(SAO)]   TOL
   5  -704.05900651153    -3286.6110787     1405.3551574    0.150D-03 0.482D-14
          Norm of current diis error: 0.42296    
          max. resid. norm for Fia-block=  1.201D-02 for orbital     32a         
          max. resid. fock norm         =  1.202D-02 for orbital     32a         
 mo-orthogonalization: Cholesky decomposition
          Delta Eig. =     9.3236294849 eV 
 
                                              current damping :  0.250
 ITERATION  ENERGY          1e-ENERGY        2e-ENERGY     RMS[dD(SAO)]   TOL
   6  -704.06423948935    -3287.1494649     1405.8883106    0.613D-04 0.442D-14
          Norm of current diis error: 0.13676    
          max. resid. norm for Fia-block=  3.923D-03 for orbital     32a         
          max. resid. fock norm         =  3.925D-03 for orbital     32a         
          Delta Eig. =     2.6172243645 eV 
 
                                              current damping :  0.100
 ITERATION  ENERGY          1e-ENERGY        2e-ENERGY     RMS[dD(SAO)]   TOL
   7  -704.06489553608    -3287.3135226     1406.0517123    0.226D-04 0.413D-14
          Norm of current diis error: 0.38968E-01
          max. resid. norm for Fia-block=  1.042D-03 for orbital     32a         
          max. resid. fock norm         =  1.042D-03 for orbital     32a         
          Delta Eig. =     0.5935616778 eV 
 
                                              current damping :  0.050
 ITERATION  ENERGY          1e-ENERGY        2e-ENERGY     RMS[dD(SAO)]   TOL
   8  -704.06495833564    -3287.3549896     1406.0931164    0.807D-05 0.389D-14
          Norm of current diis error: 0.84550E-02
          max. resid. norm for Fia-block=  2.691D-04 for orbital     71a         
          max. resid. fock norm         =  2.715D-04 for orbital     71a         
          Delta Eig. =     0.0551335492 eV 
 
                                              current damping :  0.050
 ITERATION  ENERGY          1e-ENERGY        2e-ENERGY     RMS[dD(SAO)]   TOL
   9  -704.06496155506    -3287.3588235     1406.0969472    0.226D-05 0.371D-14
          Norm of current diis error: 0.17773E-02
          max. resid. norm for Fia-block=  6.985D-05 for orbital     71a         
          max. resid. fock norm         =  7.033D-05 for orbital     71a         
          Delta Eig. =     0.0019723649 eV 
 
                                              current damping :  0.100
 ITERATION  ENERGY          1e-ENERGY        2e-ENERGY     RMS[dD(SAO)]   TOL
  10  -704.06496170346    -3287.3586254     1406.0967489    0.599D-06 0.360D-14
          Norm of current diis error: 0.35234E-03
          max. resid. norm for Fia-block=  1.495D-05 for orbital     71a         
          max. resid. fock norm         =  1.498D-05 for orbital     71a         
 mo-orthogonalization: Cholesky decomposition
          Delta Eig. =     0.0002612145 eV 
 
                                              current damping :  0.050
 ITERATION  ENERGY          1e-ENERGY        2e-ENERGY     RMS[dD(SAO)]   TOL
  11  -704.06496170980    -3287.3584434     1406.0965669    0.134D-06 0.353D-14
          Norm of current diis error: 0.85454E-04
          max. resid. norm for Fia-block=  3.566D-06 for orbital     62a         
          max. resid. fock norm         =  3.671D-06 for orbital     62a         
          Delta Eig. =     0.0000798852 eV 

 DENSITY CONVERGED !

 
                                              current damping :  0.050
 ITERATION  ENERGY          1e-ENERGY        2e-ENERGY     RMS[dD(SAO)]   TOL
  12  -704.06496171016    -3287.3584188     1406.0965423    0.358D-07 0.348D-14
          Norm of current diis error: 0.20904E-04
          max. resid. norm for Fia-block=  1.079D-06 for orbital     72a         
          max. resid. fock norm         =  1.105D-06 for orbital     62a         
          Delta Eig. =     0.0000154096 eV 

 DENSITY CONVERGED !

 
                                              current damping :  0.050
 ITERATION  ENERGY          1e-ENERGY        2e-ENERGY     RMS[dD(SAO)]   TOL
  13  -704.06496171020    -3287.3584117     1406.0965352    0.728D-08 0.367D-14
          Norm of current diis error: 0.62158E-05
          max. resid. norm for Fia-block=  3.696D-07 for orbital     55a         
          max. resid. fock norm         =  4.103D-07 for orbital     55a         
          Delta Eig. =     0.0000120233 eV 

 ENERGY & DENSITY CONVERGED !

 
                                              current damping :  0.100
 ITERATION  ENERGY          1e-ENERGY        2e-ENERGY     RMS[dD(SAO)]   TOL
  14  -704.06496171021    -3287.3584180     1406.0965415    0.161D-08 0.367D-14
          max. resid. norm for Fia-block=  9.233D-08 for orbital     72a         
          max. resid. fock norm         =  1.418D-07 for orbital      3a         

 convergence criteria satisfied after    14 iterations


                  ------------------------------------------ 
                 |  total energy      =   -704.06496171021  |
                  ------------------------------------------ 
                 :  kinetic energy    =    703.12630584968  :
                 :  potential energy  =  -1407.19126755989  :
                 :  virial theorem    =      1.99866680504  :
                 :  wavefunction norm =      1.00000000000  :
                  .......................................... 


 <geterg> : there is no data group $energy 


 orbitals $scfmo  will be written to file mos

    irrep                 69a         70a         71a         72a         73a   
 eigenvalues H         -0.45575    -0.45343    -0.45165    -0.43164    -0.40882
            eV         -12.4017    -12.3385    -12.2901    -11.7457    -11.1247
 occupation              2.0000      2.0000      2.0000      2.0000      2.0000 

    irrep                 74a         75a         76a         77a         78a   
 eigenvalues H          0.11254     0.11440     0.11865     0.12560     0.13052
            eV           3.0624      3.1130      3.2286      3.4177      3.5516
 
 
 
 
 ==============================================================================
                           electrostatic moments
 ==============================================================================

 reference point for electrostatic moments:    0.00000   0.00000   0.00000

 
              nuc           elec       ->  total
 ------------------------------------------------------------------------------
                          charge      
 ------------------------------------------------------------------------------
         146.000000    -146.000000      -0.000000
 
 ------------------------------------------------------------------------------
                       dipole moment  
 ------------------------------------------------------------------------------
   x    3183.430754   -3183.430382       0.000372
   y    2003.111591   -2003.111108       0.000482
   z     565.999433    -566.000982      -0.001549
 
   | dipole moment | =     0.0017 a.u. =     0.0042 debye 
 
 ------------------------------------------------------------------------------
                     quadrupole moment
 ------------------------------------------------------------------------------
  xx   87131.403370  -87225.584880     -94.181510
  yy   33697.710824  -33792.232817     -94.521993
  zz    2297.055801   -2386.424013     -89.368211
  xy   53924.831942  -53926.339407      -1.507466
  xz   12404.020414  -12403.846677       0.173737
  yz    7822.232217   -7822.827209      -0.594991
 
     1/3  trace=     -92.690571
     anisotropy=       5.735205
 
 ==============================================================================
 


    ------------------------------------------------------------------------
         total  cpu-time : 19 hours 57 minutes and 38 seconds
         total wall-time : 44 minutes and 20 seconds
    ------------------------------------------------------------------------

   ****  dscf : all done  ****


    2019-03-26 14:05:54.051 

