
   OpenMP run-time library returned nthreads = 20

 ricc2 (c-9-374.local) : TURBOMOLE V7.2 ( 21471 ) 11 Oct 2017 at 17:04:51
 Copyright (C) 2017 TURBOMOLE GmbH, Karlsruhe


    2018-04-05 03:14:29.268 



                              R I C C 2 - PROGRAM

                          the quantum chemistry groups
                             at the universities in
                           Karlsruhe, Bochum & Mainz
                                   Germany



   *-----------------------------------------------------------------------*
   |                     program will use 20 thread(s)                     |
   *-----------------------------------------------------------------------*


              +--------------------------------------------------+
              | Atomic coordinate, charge and isotop information |
              +--------------------------------------------------+

                    atomic coordinates            atom    charge  isotop
         -0.20018604   -7.87471963   -2.09254772    c      0.000     0
          0.14048088   -7.78855065    2.40059653    c      0.000     0
          1.20752687   -2.47808280    6.62432958    c      0.000     0
          0.38048851   -6.37138420    4.80489514    c      0.000     0
         -0.43160402   -6.54951225   -4.54962049    c      0.000     0
         -1.22658032   -2.72228674   -6.51743765    c      0.000     0
         -0.03156601  -11.49360139    0.22424241    c      0.000     0
          1.95946924    0.20465048    6.21240842    c      0.000     0
          4.31732221    0.74017558    5.08327056    c      0.000     0
          0.29504563    2.18507429    6.88434032    c      0.000     0
         -1.95586029   -0.01922565   -6.21154766    c      0.000     0
         -0.27677211    1.91863032   -6.96582757    c      0.000     0
         -4.30915690    0.58110258   -5.10539054    c      0.000     0
          5.05336242    3.34022784    4.68510069    c      0.000     0
         -5.02577334    3.20106925   -4.81811512    c      0.000     0
          1.05924493    4.77693321    6.48480601    c      0.000     0
         -1.02176169    4.53059988   -6.67688095    c      0.000     0
         -0.03204465   -6.47630691    0.12819203    c      0.000     0
         -3.37852768    5.09837874   -5.63582048    c      0.000     0
          3.41979449    5.28253776    5.42038007    c      0.000     0
         -0.90650469   -3.81776637   -8.90981543    c      0.000     0
          0.87956774   -3.47807057    9.05696306    c      0.000     0
         -6.03177816   -1.30074758   -4.22509558    c      0.000     0
          6.02647310   -1.19023914    4.28514102    c      0.000     0
          2.20139976    1.40987732   -7.89054036    c      0.000     0
         -2.18657799    1.73429082    7.82943670    c      0.000     0
          0.06252407   -7.52664554    7.15917791    c      0.000     0
         -0.12262301   -7.79697437   -6.85758807    c      0.000     0
         -7.37731692    3.80103816   -3.65444222    c      0.000     0
          7.40953243    3.87269520    3.49808695    c      0.000     0
          0.71116379    6.47359495   -7.36886379    c      0.000     0
         -0.65946218    6.76025040    7.09305437    c      0.000     0
          0.30013978   -6.03371594    9.31290024    c      0.000     0
         -0.34821139   -6.38598709   -9.06716633    c      0.000     0
         -8.27391543   -0.64638514   -3.09874551    c      0.000     0
          8.27388125   -0.60099858    3.13375965    c      0.000     0
          3.82390490    3.33956272   -8.51760555    c      0.000     0
         -8.95648947    1.93031696   -2.79979377    c      0.000     0
         -3.79490143    3.70072318    8.37336760    c      0.000     0
          8.97558501    1.95564500    2.72601583    c      0.000     0
         -3.02420885    6.24525058    8.01874392    c      0.000     0
          3.07161725    5.90234954   -8.27221529    c      0.000     0
         -0.96623821   -4.06816982   -4.38705349    n      0.000     0
          0.93463579   -3.90248213    4.54701095    n      0.000     0
          0.10554206  -10.33600376    2.46911960    n      0.000     0
         -0.16571397  -10.42291322   -2.06350296    n      0.000     0
         -5.52888817   -3.27555082   -4.41711073    h      0.000     0
         -0.03511093   -4.43927831    0.08728609    h      0.000     0
          2.83236466   -0.53545467   -8.03468801    h      0.000     0
          5.50935321   -3.15139416    4.56123835    h      0.000     0
         -2.83184000   -0.19847335    8.05601913    h      0.000     0
         -9.52895647   -2.10940058   -2.39820891    h      0.000     0
         -3.92715037    7.06644070   -5.40605537    h      0.000     0
          3.98257509    7.23493035    5.10669474    h      0.000     0
         -0.35721702   -9.53005090    7.25230480    h      0.000     0
          0.28148120   -9.80567179   -6.87338031    h      0.000     0
         -1.12559083   -2.67141720  -10.59669494    h      0.000     0
        -10.72589693    2.41303543   -1.87962821    h      0.000     0
          1.10912985   -2.26969258   10.69853495    h      0.000     0
          7.92573692    5.83551597    3.18331781    h      0.000     0
         -7.87967444    5.77922830   -3.42525112    h      0.000     0
         -0.05921975    8.69924848    6.77637008    h      0.000     0
          0.12561351    8.42869880   -7.13412106    h      0.000     0
         -0.03362509  -13.54968985    0.26382633    h      0.000     0
          9.51807018   -2.10170030    2.49641206    h      0.000     0
         -5.69172448    3.30384552    9.04846421    h      0.000     0
          5.71802144    2.90061961   -9.17403300    h      0.000     0
         10.75009737    2.38566125    1.78965968    h      0.000     0
         -4.33369591    7.76892151    8.42994064    h      0.000     0
          4.39168670    7.39749361   -8.74903426    h      0.000     0
         -0.10685690   -7.27991648  -10.89910092    h      0.000     0
          0.05173235   -6.85454176   11.17779719    h      0.000     0
          2.44708640    1.91961895   -1.11989624    c      6.000     0
         -2.43984093    1.98960179    1.05034308    c      6.000     0
         -1.16926833   -0.35056112    0.56103313    c      6.000     0
          1.16264323   -0.38495217   -0.51252382    c      6.000     0
         -1.17079523    4.30208170    0.41170836    c      6.000     0
          1.19557964    4.26912272   -0.59197886    c      6.000     0
         -4.85912328    2.00530366    2.12114805    c      6.000     0
          4.86350260    1.86690873   -2.19625118    c      6.000     0
          6.07016858   -0.44533712   -2.81739403    c      6.000     0
         -6.08756385   -0.26716773    2.83899207    c      6.000     0
         -6.18254576    4.29560535    2.54802137    c      6.000     0
          6.20609564    4.12426322   -2.72505056    c      6.000     0
          7.03568300   -2.35386544   -3.33760336    n      7.000     0
         -7.24292873    6.19716894    2.87564012    n      7.000     0
          7.28384225    5.99998349   -3.13476183    n      7.000     0
         -7.07120857   -2.14339154    3.43688136    n      7.000     0
         -2.11281301   -2.10434673    1.04105016    h      1.000     0
         -2.12183961    6.08049497    0.78457728    h      1.000     0
          2.15902028    6.02050259   -1.05111198    h      1.000     0
          2.09896318   -2.16664634   -0.89310536    h      1.000     0
 
       center of nuclear mass  :   -0.00096570   -0.18204794    0.00350054
       center of nuclear charge:    0.00266037    1.93919424   -0.03681334

              +--------------------------------------------------+
              |               basis set information              |
              +--------------------------------------------------+

              we will work with the 1s 3p 5d 7f 9g ... basis set
              ...i.e. with spherical basis functions...

   type   atoms  prim   cont   basis
   ---------------------------------------------------------------------------
    c       54     77     55   cc-pVQZ   [5s4p3d2f1g|21s6p3d2f1g]
    n        8     77     55   cc-pVQZ   [5s4p3d2f1g|21s6p3d2f1g]
    h       30     32     30   cc-pVQZ   [4s3p2d1f|6s3p2d1f]
   ---------------------------------------------------------------------------
   total:   92   5734   4310
   ---------------------------------------------------------------------------

   total number of primitive shells          :   78
   total number of contracted shells         : 1230
   total number of cartesian basis functions : 5390
   total number of SCF-basis functions       : 4310


 symmetry group of the molecule :   c1 

 the group has the following generators :
   c1(z)

    1 symmetry operations found

 there are 1 real representations :   a   


   =========================================================================


     restricted closed shell calculation for the wavefunction models:
               MP2        - Second Order Moeller Plesset PT


     global parameters for ricc2 program:

        hard restart (reuse of interm.) :  disabled
        soft restart (reuse of vectors) :  disabled
        threshold for vector function   :    0.100000E-05
        convergence threshold energy    :    0.100000E-06
        linear dependence threshold     :    0.100000E-13
        global print level              :      1
        maximum number of iterations    :   300
        maximum number DIIS vectors     :    10
        max. dim. of reduced space      :   100
        core memory limit (MB)          : 95367


     MP2 energy only: Energy will be calculated directly from T2 amplitudes!

     Scratch Directory : 


   =========================================================================

    der. integral neglect threshold  :  0.10E-07
    integral neglect threshold       :  0.62E-12
    integral storage threshold THIZE :  0.10E-04
    integral storage threshold THIME :         5


                  +------------------------------------------+
                  |     Auxiliary basis set information      |
                  +------------------------------------------+

              we will work with the 1s 3p 5d 7f 9g ... basis set
              ...i.e. with spherical basis functions...

   type   atoms  prim   cont   basis
   ---------------------------------------------------------------------------
    c       54    132    132   cc-pVQZ   [8s7p6d5f3g1h|8s7p6d5f3g1h]
    n        8    132    132   cc-pVQZ   [8s7p6d5f3g1h|8s7p6d5f3g1h]
    h       30     55     55   cc-pVQZ   [5s4p3d2f1g|5s4p3d2f1g]
   ---------------------------------------------------------------------------
   total:   92   9834   9834
   ---------------------------------------------------------------------------

   total number of primitive shells          :   75
   total number of contracted shells         : 2310
   total number of cartesian basis functions :13322
   total number of SCF-basis functions       : 9834


 maximum number of shells which are related by symmetry :  1


 The symmetry information takes   1 MB

*---------------------------------------------------------------------*
|               simplified C1 algorithm will be applied               |
*---------------------------------------------------------------------*
  MOs are in ASCII format !


 reading orbital data $scfmo  from file mos
 orbital characterization : scfconv=7



              +--------------------------------------------+
              | list of orbitals that will be kept frozen: |
              +--------------------------------------------+
              |   irrep   index      energy     occ/vir    |
              +--------------------------------------------+
              |   a         1      -15.6207     occupied   |
              |   a         2      -15.6207     occupied   |
              |   a         3      -15.6207     occupied   |
              |   a         4      -15.6207     occupied   |
              |   a         5      -11.3681     occupied   |
              |   a         6      -11.3681     occupied   |
              |   a         7      -11.3607     occupied   |
              |   a         8      -11.3607     occupied   |
              |   a         9      -11.3230     occupied   |
              |   a        10      -11.3230     occupied   |
              |   a        11      -11.3229     occupied   |
              |   a        12      -11.3228     occupied   |
              |   a        13      -11.3213     occupied   |
              |   a        14      -11.3199     occupied   |
              |   a        15      -11.3198     occupied   |
              |   a        16      -11.3184     occupied   |
              +--------------------------------------------+



   Molecular Orbital Statistic:
   ============================

   -----------------------------
   orbitals in total:
   -----------------------------
    frozen occupied :     16
    active occupied :     36
    active virtual  :   4258
    frozen virtual  :      0
    all together    :   4310
   -----------------------------


     time in riccmos       cpu: 31.80 sec    wall: 13.19 sec    ratio:  2.4

     total memory allocated for calculation of (Q|P)**(-1/2) : 1107 MiB


     calculation of (P|Q) ...
     time in lp2sym        cpu: 26.64 sec    wall:  1.45 sec    ratio: 18.4


     calculation of the Cholesky decomposition of (P|Q)**(-1) ...
     time in invmetri      cpu:  2 min  0 s  wall:  0 min 11 s  ratio: 11.2

   threshold for RMS(d[D]) in SCF was     :  0.10E-06
   integral neglect threshold             :  0.62E-12
   derivative integral neglect threshold  :  0.10E-07


   =========================================================================

     Energy of reference wave function is  -674.7040475860000
     Maximum orbital residual is           0.1250185290784E-04


     Number of symmetry-nonredundant auxiliary basis functions:     9834

     Block lengths for integral files:
        frozen occupied (BOI):        2 MiB
        active occupied (BJI):        3 MiB
        active virtual  (BAI):      320 MiB
        frozen virtual  (BGI):        0 MiB
               general  (BTI):      324 MiB

   =========================================================================




   **************************************************************************
   *                                                                        *
   *          OPTIMIZATION OF THE GROUND STATE CLUSTER AMPLITUDES           *
   *                                                                        *
   **************************************************************************


   Iter.   MP2 energy       Norm(Omega)    Norm(t1)  Norm(t2)     cpu    wall
   ...........................................................................
    1   -677.4552729059     ------          0.00000   0.58084  196.58    9.96
   ...........................................................................


     time in total         cpu:  3 h 16 min  wall:  0 h  9 min  ratio: 19.7


     **********************************************************************
     *                                                                    *
     *   RHF  energy                             :   -674.7040475860      *
     *   MP2 correlation energy (doubles)        :     -2.7512253199      *
     *                                                                    *
     *   Final MP2 energy                        :   -677.4552729059      *
     *                                                                    *
     *    E(S)   =     -1.6966500462      E(T)   =     -1.0545752737      *
     *    E(OS)  =     -2.0481751374      E(SS)  =     -0.7030501824      *
     *                                                                    *
     *   SCS-MP2 energy                          :   -677.3962078117      *
     *   (computed with  C(OS) =   1.2000  and  C(SS) =   0.3333)         *
     *                                                                    *
     *   SOS-MP2 energy                          :   -677.3666752647      *
     *   (computed with  C(OS) =   1.3000)                                *
     *                                                                    *
     *   Norm of MP1 T2 amplitudes               :      0.5808414652      *
     *                                                                    *
     **********************************************************************



    ------------------------------------------------------------------------
         total  cpu-time :  4 hours 14 minutes and  3 seconds
         total wall-time : 13 minutes and 32 seconds
    ------------------------------------------------------------------------

   ****  ricc2 : all done  ****


    2018-04-05 03:28:01.501 

