 operating system is UNIX !
 hostname is c-9-413.local

 ridft (c-9-413.local) : TURBOMOLE V7.1 ( ) 5 Apr 2016 at 11:29:09
 Copyright (C) 2016 TURBOMOLE GmbH, Karlsruhe


    2016-06-24 19:36:45.011 



                                  r i d f t

                        DFT program with RI approximation 
                                for coulomb part 




                                                 
                                 References:     
                                                 
          TURBOMOLE:                             
              R. Ahlrichs, M. Baer, M. Haeser, H. Horn, and
              C. Koelmel
              Electronic structure calculations on workstation
              computers: the program system TURBOMOLE
              Chem. Phys. Lett. 162: 165 (1989)
          Density Functional:                              
              O. Treutler and R. Ahlrichs                      
              Efficient Molecular Numerical Integration Schemes
              J. Chem. Phys. 102: 346 (1995)                   
          Parallel Version:                                
              Performance of parallel TURBOMOLE for Density    
              Functional Calculations                          
              M. v. Arnim and R. Ahlrichs                      
              J. Comp. Chem. 19: 1746 (1998)                   
          RI-J Method:                                     
              Auxiliary Basis Sets to approximate Coulomb      
              Potentials                                       
              Chem. Phys. Lett. 240: 283 (1995)                
              K. Eichkorn, O. Treutler, H. Oehm, M. Haeser     
              and R. Ahlrichs                                  
              Chem. Phys. Lett. 242: 652 (1995)                
                                                           
              Auxiliary Basis Sets for Main Row Atoms and their
              Use to approximate Coulomb Potentials            
              K. Eichkorn, F. Weigend, O. Treutler and         
              R. Ahlrichs                                      
              Theo. Chem. Acc. 97: 119 (1997)                   
                                                           
              Accurate Coulomb-fitting basis sets for H to Rn 
              F. Weigend                                        
              Phys. Chem. Chem. Phys. 8: 1057 (2006)            
                                                           
          Multipole accelerated RI-J (MARI-J):             
              Fast evaluation of the Coulomb potential for     
              electron densities using multipole accelerated   
              resolution of identity approximation             
              M. Sierka, A. Hogekamp and R. Ahlrichs           
              J. Chem. Phys. 118: 9136 (2003)                  
          RI-JK Method:                                     
              A fully direct RI-HF algorithm: Implementation,
              optimised auxiliary basis sets, demonstration of
              accuracy and efficiency                         
              F. Weigend                                      
              Phys. Chem. Chem. Phys. 4: 4285 (2002)           
          Two-component HF and DFT with spin-orbit coupling:  
              Self-consistent treatment of spin-orbit         
              interactions with efficient Hartree-Fock and    
              density functional methods                      
              M. K. Armbruster, F. Weigend, C. van Wüllen and 
              W. Klopper                                      
              Phys. Chem. Chem. Phys. 10: 1748 (2008)         
          Relativistic all-electron 2c calculations           
              An efficient implementation of two-component    
              relativistic exact-decoupling methods for large 
              molecules                                       
              D. Peng, N. Middendorf, F. Weigend, M. Reiher   
              J. Chem. Phys. 138, 184105 (2013)               
                                         


 


              +--------------------------------------------------+
              |      general information about current run       |
              +--------------------------------------------------+

 

 DENSITY CONVERGENCE CHECK SWITCHED ON !
 SCF CONVERGENCE IF RMS(delta[D]) <     0.1000000000E-06

 TPSS meta-GGA functional
 exchange:    LDA + TPSS
 correlation: LDA (PW) + TPSS
 A DFT calculation using the RI-J approximation will be carried out.
 Allocatable memory for RI due to $ricore (MB):        2000


              +--------------------------------------------------+
              | Atomic coordinate, charge and isotop information |
              +--------------------------------------------------+

                    atomic coordinates            atom    charge  isotop
          0.00508138   -2.03275815   -2.54370286    c      6.000     0
         -2.29393238    1.86921472   -1.17232807    c      6.000     0
          2.44012813    1.74558484   -1.06241391    c      6.000     0
         -2.46382123   -2.03374135    1.51662844    c      6.000     0
          2.28220153   -2.15740614    1.62560354    c      6.000     0
         -0.02387182    1.76346218    2.99919287    c      6.000     0
          0.08045308    0.85830444   -2.50245293    c      6.000     0
         -0.08371104   -3.04529429    0.18376370    c      6.000     0
         -2.39269321    0.87431663    1.56310083    c      6.000     0
          2.35959173    0.75051232    1.67363395    c      6.000     0
          0.16213856    1.65826334   -5.10802195    o      8.000     0
          0.21253706    3.49388100   -5.11609296    h      1.000     0
         -0.13664338   -5.11707860    0.14101450    h      1.000     0
         -4.09291645    1.60022350    2.50188083    h      1.000     0
          4.04982474    1.38810728    2.69134274    h      1.000     0
         -1.66129845   -2.64982149   -3.61070355    h      1.000     0
          1.68284878   -2.73844416   -3.53520111    h      1.000     0
          4.13031411    1.05925923   -2.04659823    h      1.000     0
         -3.97016600    1.27101569   -2.23490224    h      1.000     0
         -2.55746301   -2.76939124    3.45429566    h      1.000     0
          2.24934442   -2.89589086    3.56413100    h      1.000     0
         -0.08714804    1.08327834    4.95819909    h      1.000     0
          3.99047731   -2.89710843    0.70989097    h      1.000     0
         -4.16483689   -2.68603944    0.52391588    h      1.000     0
         -2.25400389    3.94743227   -1.17598733    h      1.000     0
          2.50891754    3.82313963   -1.06589332    h      1.000     0
          0.02864741    3.83697875    3.06770447    h      1.000     0
 
       center of nuclear mass  :    0.00942002    0.06154431   -0.33814078
       center of nuclear charge:    0.00812025    0.05439071   -0.28989316

              +--------------------------------------------------+
              |               basis set information              |
              +--------------------------------------------------+

              we will work with the 1s 3p 5d 7f 9g ... basis set
              ...i.e. with spherical basis functions...

   type   atoms  prim   cont   basis
   ---------------------------------------------------------------------------
    c       10     77     55   cc-pVQZ   [5s4p3d2f1g|21s6p3d2f1g]
    o        1     77     55   cc-pVQZ   [5s4p3d2f1g|21s6p3d2f1g]
    h       16     32     30   cc-pVQZ   [4s3p2d1f|6s3p2d1f]
   ---------------------------------------------------------------------------
   total:   27   1359   1085
   ---------------------------------------------------------------------------

   total number of primitive shells          :   78
   total number of contracted shells         :  325
   total number of cartesian basis functions : 1330
   total number of SCF-basis functions       : 1085


 integral neglect threshold       :  0.25E-13
 integral storage threshold THIZE :  0.10E-04
 integral storage threshold THIME :         5

 RI-J AUXILIARY BASIS SET information:

              we will work with the 1s 3p 5d 7f 9g ... basis set
              ...i.e. with spherical basis functions...

   type   atoms  prim   cont   basis
   ---------------------------------------------------------------------------
    c       10     70     49   cc-pVQZ   [6s4p3d1f1g|12s5p4d2f1g]
    o        1     70     49   cc-pVQZ   [6s4p3d1f1g|12s5p4d2f1g]
    h       16     16     11   cc-pVQZ   [3s1p1d|5s2p1d]
   ---------------------------------------------------------------------------
   total:   27   1026    715
   ---------------------------------------------------------------------------

   total number of primitive shells          :   56
   total number of contracted shells         :  245
   total number of cartesian basis functions :  863
   total number of SCF-basis functions       :  715


 symmetry group of the molecule :   c1 

 the group has the following generators :
   c1(z)

    1 symmetry operations found

 there are 1 real representations :   a   

 maximum number of shells which are related by symmetry :  1


    mo occupation :
   irrep   mo's   occupied
    a     1085       42
 
 number of basis functions   :         1085
 number of occupied orbitals :           42
 
  
           ------------------
           density functional
           ------------------
 TPSS meta-GGA functional
 exchange:    LDA + TPSS
 correlation: LDA (PW) + TPSS
 iterations will be done with small grid
  
 spherical integration : Lebedev's spherical grid
 spherical gridsize    :           5
    i.e. gridpoints    :         590
 value for diffuse not defined
 radial integration    : Chebyshev 2nd kind (scaling 3)
 radial gridsize       :           8
 integration cells     :          27
 partition function    : becke
 partition sharpness   :           3
  

 biggest AO integral is expected to be     4.785886462
  
           ------------------------
               RI-J - INFORMATION
           ------------------------
 Contributions to RI integral batches: 
  neglected integral batches:        8891
  direct contribution:              22754
  memory contribution:       21330
 Memory core needed for (P|Q) and Cholesky      4 MByte
 Memory core minimum needed except of (P|Q)     3 MByte
 Total minimum memory core needed (sum)         7 MByte
  
 ****************************************
 Memory allocated for RI-J  1501 MByte
 ****************************************
                                            

          ------------------------
          nuclear repulsion energy  :   702.363516311    
          ------------------------

 
          -----------------
          -S,T+V- integrals
          -----------------

 1e-integrals will be neglected if expon. factor < 0.251275E-14
 
   Difference densities algorithm switched on.
   The maximal number of linear combinations of
   difference densities is          20 .

 DIIS switched on: error vector is FDS-SDF
 Max. Iterations for DIIS is     :   4
 DIIS matrix (see manual) 
    Scaling factor of diagonals  :  1.200
    threshold for scaling factor :  0.000

 scf convergence criterion : increment of total energy < .1000000D-08
                  and increment of one-electron energy < .1000000D-05


 <geterg> : there is no data group $energy 

  MOs are in ASCII format !


 automatic virtual orbital shift switched on 
      shift if e(lumo)-e(homo) < 0.10000000    


 reading orbital data $scfmo  from file mos
 orbital characterization : scfconv=9

 DSCF restart information will be dumped onto file mos


 Starting SCF iterations

          Overall gridpoints after grid construction =        119761

 ITERATION  ENERGY          1e-ENERGY        2e-ENERGY     RMS[dD(SAO)]   TOL
   1  -466.20226104404    -2024.4402707     855.87449336    0.000D+00 0.251D-13
                            Exc = -69.0694311949     Coul =  924.943924554    
                              N = 83.999906537    
                            current damping = 0.700
 
          max. resid. norm for Fia-block=  4.233D-02 for orbital      1a         
          max. resid. fock norm         =  3.083D-01 for orbital   1067a         

 ITERATION  ENERGY          1e-ENERGY        2e-ENERGY     RMS[dD(SAO)]   TOL
   2  -466.20875867113    -2024.2804365     855.70816152    0.504D-03 0.161D-13
                            Exc = -69.1330309123     Coul =  924.841192434    
                              N = 83.999907282    
                            current damping = 0.650
 
          Norm of current diis error: 0.20649    
          max. resid. norm for Fia-block=  1.705D-02 for orbital      7a         
          max. resid. fock norm         =  1.348D-01 for orbital   1061a         

 ITERATION  ENERGY          1e-ENERGY        2e-ENERGY     RMS[dD(SAO)]   TOL
   3  -466.20970654011    -2024.6605259     856.08730304    0.220D-03 0.125D-13
                            Exc = -69.1649157627     Coul =  925.252218799    
                              N = 83.999909288    
                            current damping = 0.600
 
          Norm of current diis error: 0.13086    
          max. resid. norm for Fia-block=  7.391D-03 for orbital      1a         
          max. resid. fock norm         =  5.991D-02 for orbital   1063a         

 ITERATION  ENERGY          1e-ENERGY        2e-ENERGY     RMS[dD(SAO)]   TOL
   4  -466.21008023327    -2024.4286241     855.85502755    0.114D-03 0.115D-13
                            Exc = -69.1715891749     Coul =  925.026616723    
                              N = 83.999908734    
                            current damping = 0.650
 
          Norm of current diis error: 0.42141E-01
          max. resid. norm for Fia-block=  2.504D-03 for orbital      3a         
          max. resid. fock norm         =  2.144D-02 for orbital   1063a         

 ITERATION  ENERGY          1e-ENERGY        2e-ENERGY     RMS[dD(SAO)]   TOL
   5  -466.21012041913    -2024.4514994     855.87786265    0.364D-04 0.107D-13
                            Exc = -69.1734541625     Coul =  925.051316808    
                              N = 83.999908896    
                            current damping = 0.700
 
          Norm of current diis error: 0.13788E-01
          max. resid. norm for Fia-block=  1.034D-03 for orbital      7a         
          max. resid. fock norm         =  8.902D-03 for orbital   1059a         
          mo-orthogonalization: Cholesky decomposition

 ITERATION  ENERGY          1e-ENERGY        2e-ENERGY     RMS[dD(SAO)]   TOL
   6  -466.21012528043    -2024.4739677     855.90032616    0.142D-04 0.104D-13
                            Exc = -69.1761086709     Coul =  925.076434826    
                              N = 83.999909037    
                            current damping = 0.550
 
          Norm of current diis error: 0.59614E-02
          max. resid. norm for Fia-block=  4.090D-04 for orbital      9a         
          max. resid. fock norm         =  3.627D-03 for orbital   1059a         

 ITERATION  ENERGY          1e-ENERGY        2e-ENERGY     RMS[dD(SAO)]   TOL
   7  -466.21012620046    -2024.4673376     855.89369511    0.641D-05 0.101D-13
                            Exc = -69.1761113038     Coul =  925.069806414    
                              N = 83.999909051    
                            current damping = 0.600
 
          Norm of current diis error: 0.23273E-02
          max. resid. norm for Fia-block=  1.655D-04 for orbital      1a         
          max. resid. fock norm         =  1.430D-03 for orbital   1059a         

 ITERATION  ENERGY          1e-ENERGY        2e-ENERGY     RMS[dD(SAO)]   TOL
   8  -466.21012630856    -2024.4703286     855.89668597    0.313D-05 0.993D-14
                            Exc = -69.1765846338     Coul =  925.073270608    
                              N = 83.999909052    
                            current damping = 0.650
 
          Norm of current diis error: 0.14228E-02
          max. resid. norm for Fia-block=  5.761D-05 for orbital      9a         
          max. resid. fock norm         =  4.999D-04 for orbital   1059a         

 ITERATION  ENERGY          1e-ENERGY        2e-ENERGY     RMS[dD(SAO)]   TOL
   9  -466.21012635493    -2024.4713437     855.89770107    0.117D-05 0.976D-14
                            Exc = -69.1766141873     Coul =  925.074315259    
                              N = 83.999909066    
                            current damping = 0.500
 
          Norm of current diis error: 0.38244E-03
          max. resid. norm for Fia-block=  2.267D-05 for orbital      6a         
          max. resid. fock norm         =  2.120D-04 for orbital   1059a         

 ITERATION  ENERGY          1e-ENERGY        2e-ENERGY     RMS[dD(SAO)]   TOL
  10  -466.21012635752    -2024.4703731     855.89673046    0.341D-06 0.947D-14
                            Exc = -69.1766200315     Coul =  925.073350491    
                              N = 83.999909068    
                            current damping = 0.550
 
          Norm of current diis error: 0.25240E-03
          max. resid. norm for Fia-block=  8.050D-06 for orbital      3a         
          max. resid. fock norm         =  7.120D-05 for orbital   1059a         
          mo-orthogonalization: Cholesky decomposition

 ITERATION  ENERGY          1e-ENERGY        2e-ENERGY     RMS[dD(SAO)]   TOL
  11  -466.21012635860    -2024.4705925     855.89694986    0.136D-06 0.934D-14
                            Exc = -69.1766247577     Coul =  925.073574616    
                              N = 83.999909068    
                            current damping = 0.600
 
          Norm of current diis error: 0.84719E-04
          max. resid. norm for Fia-block=  3.546D-06 for orbital     12a         
          max. resid. fock norm         =  2.962D-05 for orbital   1059a         

 DENSITY CONVERGED !


 ITERATION  ENERGY          1e-ENERGY        2e-ENERGY     RMS[dD(SAO)]   TOL
  12  -466.21012635866    -2024.4709131     855.89727042    0.944D-07 0.920D-14
                            Exc = -69.1766483714     Coul =  925.073918792    
                              N = 83.999909069    
                            current damping = 0.450
 
          Norm of current diis error: 0.50028E-04
          max. resid. norm for Fia-block=  1.997D-06 for orbital     42a         
          max. resid. fock norm         =  1.062D-05 for orbital   1065a         

 DENSITY CONVERGED !


 ITERATION  ENERGY          1e-ENERGY        2e-ENERGY     RMS[dD(SAO)]   TOL
  13  -466.21012635862    -2024.4708244     855.89718176    0.547D-07 0.906D-14
                            Exc = -69.1766410916     Coul =  925.073822847    
                              N = 83.999909069    
                            current damping = 0.500
 
          Norm of current diis error: 0.18183E-04
          max. resid. norm for Fia-block=  4.777D-07 for orbital     42a         
          max. resid. fock norm         =  3.910D-06 for orbital   1059a         

 DENSITY CONVERGED !


 ITERATION  ENERGY          1e-ENERGY        2e-ENERGY     RMS[dD(SAO)]   TOL
  14  -466.21012635866    -2024.4707845     855.89714188    0.110D-07 0.893D-14
                            Exc = -69.1766407279     Coul =  925.073782607    
                              N = 83.999909069    
                            current damping = 0.350
 
          Norm of current diis error: 0.61969E-05
          max. resid. norm for Fia-block=  1.863D-07 for orbital     41a         
          max. resid. fock norm         =  1.598D-06 for orbital   1059a         

 ENERGY & DENSITY CONVERGED !

          Overall gridpoints after grid construction =        391933

 ITERATION  ENERGY          1e-ENERGY        2e-ENERGY     RMS[dD(SAO)]   TOL
  15  -466.20997088462    -2024.4708053     855.89731814    0.363D-08 0.879D-14
                            Exc = -69.1764860870     Coul =  925.073804231    
                              N = 83.999995474    
                            current damping = 0.400
 
          Norm of current diis error: 0.30636E-05
          max. resid. norm for Fia-block=  7.320D-08 for orbital     41a         
          max. resid. fock norm         =  4.600D-07 for orbital   1059a         

 End of SCF iterations

   convergence criteria satisfied after   15 iterations


                  ------------------------------------------ 
                 |  total energy      =   -466.20997088462  |
                  ------------------------------------------ 
                 :  kinetic energy    =    463.95537258102  :
                 :  potential energy  =   -930.16534346564  :
                 :  virial theorem    =      1.99516398523  :
                 :  wavefunction norm =      1.00000000000  :
                  .......................................... 


 <geterg> : there is no data group $energy 


 <skperg> : $end is missing 


 orbitals $scfmo  will be written to file mos

    irrep                 38a         39a         40a         41a         42a   
 eigenvalues H         -0.28190    -0.26561    -0.25774    -0.24671    -0.21901
            eV          -7.6709     -7.2276     -7.0136     -6.7133     -5.9597
 occupation              2.0000      2.0000      2.0000      2.0000      2.0000 

    irrep                 43a         44a         45a         46a         47a   
 eigenvalues H         -0.00153     0.01822     0.03364     0.03558     0.04054
            eV          -0.0417      0.4959      0.9153      0.9682      1.1032
 
 
 
 
 ==============================================================================
                           electrostatic moments
 ==============================================================================

 reference point for electrostatic moments:    0.00000   0.00000   0.00000

 
              nuc           elec       ->  total
 ------------------------------------------------------------------------------
                          charge      
 ------------------------------------------------------------------------------
          84.000000     -84.000000       0.000000
 
 ------------------------------------------------------------------------------
                       dipole moment  
 ------------------------------------------------------------------------------
   x       0.682101      -0.689183      -0.007083
   y       4.568819      -4.328197       0.240622
   z     -24.351026      24.960718       0.609692
 
   | dipole moment | =     0.6555 a.u. =     1.6661 debye 
 
 ------------------------------------------------------------------------------
                     quadrupole moment
 ------------------------------------------------------------------------------
  xx     330.906003    -381.866999     -50.960996
  yy     363.364219    -411.675675     -48.311455
  zz     551.788247    -607.565692     -55.777446
  xy       2.747523      -2.648150       0.099372
  xz      -7.270556       7.347753       0.077197
  yz     -80.882056      79.699368      -1.182688
 
     1/3  trace=     -51.683299
     anisotropy=       6.871927
 
 ==============================================================================
 


    ------------------------------------------------------------------------
         total  cpu-time : 16 minutes and 52 seconds
         total wall-time : 16 minutes and 53 seconds
    ------------------------------------------------------------------------

   ****  ridft : all done  ****


    2016-06-24 19:53:38.388 

