STARTING ridft ON 32 PROCESSORS!
RUNNING PROGRAM /sopt/TURBOMOLE/7.3-official/bin/em64t-unknown-linux-gnu_smp/ridft_mpi.
           SMPCPUS    set: Shared-memory Parallelization with  32 CPUs.

           SMP Parallelization Reference:
           C. van Wullen, J. Comput. Chem. 32 (2011) 1195--1201
 operating system is UNIX !

 ridft (c-13-38) : TURBOMOLE V7.3 ( 22118 ) 1 Jul 2018 at 20:38:15
 Copyright (C) 2018 TURBOMOLE GmbH, Karlsruhe


    2019-03-12 22:22:25.011 



                                  r i d f t

                        DFT program with RI approximation 
                                for coulomb part 




                                                 
                                 References:     
                                                 
          TURBOMOLE:                             
              R. Ahlrichs, M. Baer, M. Haeser, H. Horn, and
              C. Koelmel
              Electronic structure calculations on workstation
              computers: the program system TURBOMOLE
              Chem. Phys. Lett. 162: 165 (1989)
          Density Functional:                              
              O. Treutler and R. Ahlrichs                      
              Efficient Molecular Numerical Integration Schemes
              J. Chem. Phys. 102: 346 (1995)                   
          Parallel Version:                                
              Performance of parallel TURBOMOLE for Density    
              Functional Calculations                          
              M. v. Arnim and R. Ahlrichs                      
              J. Comp. Chem. 19: 1746 (1998)                   
          RI-J Method:                                     
              Auxiliary Basis Sets to approximate Coulomb      
              Potentials                                       
              Chem. Phys. Lett. 240: 283 (1995)                
              K. Eichkorn, O. Treutler, H. Oehm, M. Haeser     
              and R. Ahlrichs                                  
              Chem. Phys. Lett. 242: 652 (1995)                
                                                           
              Auxiliary Basis Sets for Main Row Atoms and their
              Use to approximate Coulomb Potentials            
              K. Eichkorn, F. Weigend, O. Treutler and         
              R. Ahlrichs                                      
              Theo. Chem. Acc. 97: 119 (1997)                   
                                                           
              Accurate Coulomb-fitting basis sets for H to Rn 
              F. Weigend                                        
              Phys. Chem. Chem. Phys. 8: 1057 (2006)            
                                                           
          Multipole accelerated RI-J (MARI-J):             
              Fast evaluation of the Coulomb potential for     
              electron densities using multipole accelerated   
              resolution of identity approximation             
              M. Sierka, A. Hogekamp and R. Ahlrichs           
              J. Chem. Phys. 118: 9136 (2003)                  
          RI-JK Method:                                     
              A fully direct RI-HF algorithm: Implementation,
              optimised auxiliary basis sets, demonstration of
              accuracy and efficiency                         
              F. Weigend                                      
              Phys. Chem. Chem. Phys. 4: 4285 (2002)           
          Two-component HF and DFT with spin-orbit coupling:  
              Self-consistent treatment of spin-orbit         
              interactions with efficient Hartree-Fock and    
              density functional methods                      
              M. K. Armbruster, F. Weigend, C. van Wüllen and 
              W. Klopper                                      
              Phys. Chem. Chem. Phys. 10: 1748 (2008)         
          Two-component difference density and DIIS algorithm 
              Efficient two-component self-consistent field   
              procedures and gradients: implementation in     
              TURBOMOLE and application to Au20-              
              A. Baldes, F. Weigend                           
              Mol. Phys. 111: 2617 (2013)                     
          Relativistic all-electron 2c calculations           
              An efficient implementation of two-component    
              relativistic exact-decoupling methods for large 
              molecules                                       
              D. Peng, N. Middendorf, F. Weigend, M. Reiher   
              J. Chem. Phys. 138: 184105 (2013)               
          Finite nucleus model and SNSO approximation         
              Efficient implementation of one- and two-       
              component analytical energy gradients in exact  
              two-component theory                            
              Y. J. Franzke, N. Middendorf, F. Weigend        
              J. Chem. Phys. 148: 104110 (2018)               
                                         




              +--------------------------------------------------+
              |      general information about current run       |
              +--------------------------------------------------+

 
 PBE functional
 exchange:    LDA + PBE
 correlation: LDA (PW) + PBE
 A DFT calculation using the RI-J approximation will be carried out.
 Allocatable memory for RI due to $ricore (MB):                  8000


              +--------------------------------------------------+
              | Atomic coordinate, charge and isotop information |
              +--------------------------------------------------+

                    atomic coordinates            atom    charge  isotop
          1.80824149   -1.68534400    2.15797277    c      6.000     0
          2.84321763   -2.41574581    0.53558654    h      1.000     0
          2.68602738   -2.48457022    3.83808188    h      1.000     0
          1.87262303    1.24440034    2.16468855    c      6.000     0
          2.85460982    1.93337212    0.49123031    h      1.000     0
          2.86531280    2.00276602    3.79936436    h      1.000     0
         -0.90603286    2.08308063    2.08602919    c      6.000     0
         -1.16457890    3.90205244    1.15947429    h      1.000     0
         -1.65302325    2.24701938    4.00257146    h      1.000     0
         -2.23385755   -0.09977103    0.74331575    c      6.000     0
         -1.79312741   -0.05070192   -1.27330615    h      1.000     0
         -4.28148546   -0.06342816    0.94727063    h      1.000     0
         -1.00280127   -2.40919208    1.96401050    c      6.000     0
         -1.30464918   -4.15176786    0.91272301    h      1.000     0
         -1.79684494   -2.67474099    3.84889559    h      1.000     0
 
       center of nuclear mass  :   -0.08979127   -0.17368274    1.82363247
       center of nuclear charge:   -0.08788761   -0.17391755    1.82394981

              +--------------------------------------------------+
              |               basis set information              |
              +--------------------------------------------------+

              we will work with the 1s 3p 5d 7f 9g ... basis set
              ...i.e. with spherical basis functions...

   type   atoms  prim   cont   basis
   ---------------------------------------------------------------------------
    c        5     68     48   def2-QZVP   [7s4p3d2f|15s8p3d2f]
    h       10     26     23   def2-QZVP   [4s3p2d|7s3p2d]
   ---------------------------------------------------------------------------
   total:   15    600    470
   ---------------------------------------------------------------------------

   total number of primitive shells          :   40
   total number of contracted shells         :  170
   total number of cartesian basis functions :  535
   total number of SCF-basis functions       :  470


 integral neglect threshold       :  0.62E-11
 integral storage threshold THIZE :  0.10E-04
 integral storage threshold THIME :         5

 RI-J AUXILIARY BASIS SET information:

              we will work with the 1s 3p 5d 7f 9g ... basis set
              ...i.e. with spherical basis functions...

   type   atoms  prim   cont   basis
   ---------------------------------------------------------------------------
    c        5     70     49   def2-QZVP   [6s4p3d1f1g|12s5p4d2f1g]
    h       10     16     11   def2-QZVP   [3s1p1d|5s2p1d]
   ---------------------------------------------------------------------------
   total:   15    510    355
   ---------------------------------------------------------------------------

   total number of primitive shells          :   32
   total number of contracted shells         :  125
   total number of cartesian basis functions :  425
   total number of SCF-basis functions       :  355


 symmetry group of the molecule :   c1 

 the group has the following generators :
   c1(z)

    1 symmetry operations found

 there are 1 real representations :   a   

 maximum number of shells which are related by symmetry :  1


    mo occupation :
   irrep   mo's   occupied
    a      470       20
 
 number of basis functions   :                    470
 number of occupied orbitals :                     20
 
  
           ------------------
           density functional
           ------------------
 PBE functional
 exchange:    LDA + PBE
 correlation: LDA (PW) + PBE

 iterations will be done with small grid
  
 spherical integration : Lebedev's spherical grid
 spherical gridsize    :                     4
    i.e. gridpoints    :                   434
 value for diffuse not defined
 radial integration    : Chebyshev 2nd kind (scaling 3)
 radial gridsize       :                     6
 integration cells     :                    15
 partition function    : becke
 partition sharpness   :                     3
  

 biggest AO integral is expected to be     5.262544080
  
           ------------------------
               RI-J - INFORMATION
           ------------------------
 Contributions to RI integral batches: 
  neglected integral batches:                  1201
  direct contribution:                            0
  memory contribution:                 13334
 Memory core needed for (P|Q) and Cholesky      1 MByte
 Memory core minimum needed except of (P|Q)     2 MByte
 Total minimum memory core needed (sum)         3 MByte
  
 ****************************************
 Memory allocated for RI-J   439 MByte
 ****************************************
                                            

          ------------------------
          nuclear repulsion energy  :   188.383588217    
          ------------------------

  _________________________________
 |                                 |
 |         DFTD3 V3.1 Rev 0        |
 | S.Grimme, University Bonn       |
 |            June  2014           |
 |   see standalone version        |
 |       dftd3 -h for options      |
 |_________________________________|
 
 Please cite DFT-D3 work done with this code as:
 S. Grimme, J. Antony, S. Ehrlich and H. Krieg,
 J. Chem. Phys, 132 (2010), 154104.
 If used with BJ-damping cite also
 S. Grimme, S. Ehrlich and L. Goerigk,
 J. Comput. Chem. 32 (2011), 1456-1465
 For DFT-D2 the reference is
 S. Grimme, J. Comput. Chem., 27 (2006), 1787-1799
 
C6 coefficients used:
                     2  C6 for element                      1
Z=  1 CN= 0.912     C6(AA)=    3.03
Z=  1 CN= 0.000     C6(AA)=    7.59
                     5  C6 for element                      6
Z=  6 CN= 0.000     C6(AA)=   49.11
Z=  6 CN= 0.987     C6(AA)=   43.25
Z=  6 CN= 1.998     C6(AA)=   29.36
Z=  6 CN= 2.999     C6(AA)=   25.78
Z=  6 CN= 3.984     C6(AA)=   18.21

#           XYZ [au]              R0(AA) [Ang.]  CN          C6(AA)     C8(AA)   C10(AA) [au]
  1   1.80824  -1.68534   2.15797   c   0.610  4.092        18.3       528.2     18715.3
  2   2.84322  -2.41575   0.53559   h   0.395  1.002         3.1        37.3       553.1
  3   2.68603  -2.48457   3.83808   h   0.395  1.001         3.1        37.4       553.1
  4   1.87262   1.24440   2.16469   c   0.610  4.094        18.3       528.2     18714.3
  5   2.85461   1.93337   0.49123   h   0.395  1.002         3.1        37.3       553.1
  6   2.86531   2.00277   3.79936   h   0.395  1.001         3.1        37.4       553.2
  7  -0.90603   2.08308   2.08603   c   0.610  4.109        18.3       528.0     18708.2
  8  -1.16458   3.90205   1.15947   h   0.395  1.001         3.1        37.4       553.2
  9  -1.65302   2.24702   4.00257   h   0.395  1.003         3.1        37.3       553.0
 10  -2.23386  -0.09977   0.74332   c   0.610  4.111        18.3       528.0     18707.2
 11  -1.79313  -0.05070  -1.27331   h   0.395  1.003         3.1        37.3       553.0
 12  -4.28149  -0.06343   0.94727   h   0.395  1.001         3.1        37.4       553.2
 13  -1.00280  -2.40919   1.96401   c   0.610  4.107        18.3       528.1     18708.8
 14  -1.30465  -4.15177   0.91272   h   0.395  1.001         3.1        37.4       553.2
 15  -1.79684  -2.67474   3.84890   h   0.395  1.003         3.1        37.3       553.0

molecular C6(AA) [au] =      1510.56

           DFT-D V3(BJ)
 DF pbe                                               
 parameters
 s6       :    1.0000
 s8       :    0.7875
 a1       :    0.4289
 a2       :    4.4407
 k1-k3    :   16.0000    1.3333   -4.0000
 
 Edisp /kcal,au:    -7.3659 -0.01173832

 E6    /kcal :    -5.3044
 E8    /kcal :    -2.0615
 % E8        : 27.99
 nuclear repulsion energy                  =     188.383588217
 empirical dispersive energy correction    =      -0.011738317
 nuclear repulsion + dispersion correction =     188.371849901


         -----------------
         -S,T+V- integrals
         -----------------

 1e-integrals will be neglected if expon. factor < 0.624666E-12
 Difference densities >>NOT<< switched on in parallel ridft!

 DIIS switched on: error vector is FDS-SDF
 Max. Iterations for DIIS is     :   4
 DIIS matrix (see manual) 
    Scaling factor of diagonals  :  1.200
    threshold for scaling factor :  0.000

 scf convergence criterion : increment of total energy < .1000000D-06
                  and increment of one-electron energy < .1000000D-03

  MOs are in ASCII format !


 automatic virtual orbital shift switched on 
      shift if e(lumo)-e(homo) < 0.10000000    


 reading orbital data $scfmo  from file mos
 orbital characterization : expanded
 mo provided and orthogonalized by Cholesky decomposition

 DSCF restart information will be dumped onto file mos


 Starting SCF iterations

          Overall gridpoints after grid construction =         35223

 ITERATION  ENERGY          1e-ENERGY        2e-ENERGY     NORM[dD(SAO)]  TOL
   1  -195.71475082314    -627.53793967     243.45133895    0.000D+00 0.623D-11
                            Exc = -29.6908228135     Coul =  273.142161765    
                              N = 39.999574828    
                            current damping = 0.700
 
          max. resid. norm for Fia-block=  4.534D-01 for orbital      6a         
          max. resid. fock norm         =  4.998D+01 for orbital    391a         

 ITERATION  ENERGY          1e-ENERGY        2e-ENERGY     NORM[dD(SAO)]  TOL
   2  -196.23233723047    -633.57727607     248.97308894    0.000D+00 0.623D-11
                            Exc = -30.2918343247     Coul =  279.264923266    
                              N = 39.999639989    
                            current damping = 0.650
 
          Norm of current diis error:  2.5010    
          max. resid. norm for Fia-block=  1.026D-01 for orbital      6a         
          max. resid. fock norm         =  1.213D-01 for orbital      6a         

 ITERATION  ENERGY          1e-ENERGY        2e-ENERGY     NORM[dD(SAO)]  TOL
   3  -196.33163686464    -634.44061123     249.73712447    0.000D+00 0.623D-11
                            Exc = -30.4534192197     Coul =  280.190543685    
                              N = 39.999684864    
                            current damping = 0.550
 
          Norm of current diis error:  1.2387    
          max. resid. norm for Fia-block=  4.672D-02 for orbital      6a         
          max. resid. fock norm         =  5.431D-02 for orbital      6a         

 ITERATION  ENERGY          1e-ENERGY        2e-ENERGY     NORM[dD(SAO)]  TOL
   4  -196.36181973472    -635.83042633     251.09675669    0.000D+00 0.623D-11
                            Exc = -30.5970926476     Coul =  281.693849339    
                              N = 39.999707504    
                            current damping = 0.450
 
          Norm of current diis error: 0.43542    
          max. resid. norm for Fia-block=  1.803D-02 for orbital      6a         
          max. resid. fock norm         =  2.072D-02 for orbital      6a         

 ITERATION  ENERGY          1e-ENERGY        2e-ENERGY     NORM[dD(SAO)]  TOL
   5  -196.36616267756    -635.82072945     251.08271688    0.000D+00 0.623D-11
                            Exc = -30.6239146634     Coul =  281.706631539    
                              N = 39.999719174    
                            current damping = 0.500
 
          Norm of current diis error: 0.18697    
          max. resid. norm for Fia-block=  6.300D-03 for orbital     12a         
          max. resid. fock norm         =  6.927D-03 for orbital      6a         
          mo-orthogonalization: Cholesky decomposition

 ITERATION  ENERGY          1e-ENERGY        2e-ENERGY     NORM[dD(SAO)]  TOL
   6  -196.36692079437    -636.15971208     251.42094139    0.000D+00 0.623D-11
                            Exc = -30.6525165952     Coul =  282.073457980    
                              N = 39.999721817    
                            current damping = 0.550
 
          Norm of current diis error: 0.53607E-01
          max. resid. norm for Fia-block=  2.061D-03 for orbital      6a         
          max. resid. fock norm         =  2.467D-03 for orbital     52a         

 ITERATION  ENERGY          1e-ENERGY        2e-ENERGY     NORM[dD(SAO)]  TOL
   7  -196.36698812850    -636.10433758     251.36549955    0.000D+00 0.623D-11
                            Exc = -30.6515987871     Coul =  282.017098341    
                              N = 39.999722976    
                            current damping = 0.600
 
          Norm of current diis error: 0.18859E-01
          max. resid. norm for Fia-block=  6.818D-04 for orbital      6a         
          max. resid. fock norm         =  7.648D-04 for orbital      6a         

 ITERATION  ENERGY          1e-ENERGY        2e-ENERGY     NORM[dD(SAO)]  TOL
   8  -196.36699684913    -636.12348304     251.38463629    0.000D+00 0.623D-11
                            Exc = -30.6537041121     Coul =  282.038340403    
                              N = 39.999723357    
                            current damping = 0.650
 
          Norm of current diis error: 0.64279E-02
          max. resid. norm for Fia-block=  2.609D-04 for orbital      6a         
          max. resid. fock norm         =  2.927D-04 for orbital      6a         

 ITERATION  ENERGY          1e-ENERGY        2e-ENERGY     NORM[dD(SAO)]  TOL
   9  -196.36699789893    -636.12700690     251.38815910    0.000D+00 0.623D-11
                            Exc = -30.6542299774     Coul =  282.042389082    
                              N = 39.999723489    
                            current damping = 0.500
 
          Norm of current diis error: 0.25116E-02
          max. resid. norm for Fia-block=  1.025D-04 for orbital      6a         
          max. resid. fock norm         =  1.153D-04 for orbital      6a         

 ITERATION  ENERGY          1e-ENERGY        2e-ENERGY     NORM[dD(SAO)]  TOL
  10  -196.36699806865    -636.12877600     251.38992803    0.000D+00 0.623D-11
                            Exc = -30.6544703720     Coul =  282.044398407    
                              N = 39.999723545    
                            current damping = 0.350
 
          Norm of current diis error: 0.82596E-03
          max. resid. norm for Fia-block=  3.484D-05 for orbital      6a         
          max. resid. fock norm         =  4.155D-05 for orbital      6a         
          mo-orthogonalization: Cholesky decomposition

 ITERATION  ENERGY          1e-ENERGY        2e-ENERGY     NORM[dD(SAO)]  TOL
  11  -196.36699808578    -636.12838624     251.38953825    0.000D+00 0.623D-11
                            Exc = -30.6544953573     Coul =  282.044033606    
                              N = 39.999723569    
                            current damping = 0.400
 
          Norm of current diis error: 0.41776E-03
          max. resid. norm for Fia-block=  1.258D-05 for orbital     10a         
          max. resid. fock norm         =  1.781D-05 for orbital    469a         

 ITERATION  ENERGY          1e-ENERGY        2e-ENERGY     NORM[dD(SAO)]  TOL
  12  -196.36699808919    -636.12921849     251.39037050    0.000D+00 0.623D-11
                            Exc = -30.6545581970     Coul =  282.044928695    
                              N = 39.999723573    
                            current damping = 0.450
 
          Norm of current diis error: 0.10456E-03
          max. resid. norm for Fia-block=  3.104D-06 for orbital     20a         
          max. resid. fock norm         =  4.444D-06 for orbital     58a         

 ENERGY CONVERGED !

          Overall gridpoints after grid construction =        134299

 ITERATION  ENERGY          1e-ENERGY        2e-ENERGY     NORM[dD(SAO)]  TOL
  13  -196.36692515193    -636.12906332     251.39028827    0.000D+00 0.623D-11
                            Exc = -30.6544779602     Coul =  282.044766231    
                              N = 40.000000281    
                            current damping = 0.500
 
          Norm of current diis error: 0.23508E-04
          max. resid. norm for Fia-block=  8.767D-07 for orbital      9a         
          max. resid. fock norm         =  1.656D-06 for orbital    469a         

 End of SCF iterations

   convergence criteria satisfied after    13 iterations


                  ------------------------------------------ 
                 |  total energy      =   -196.36692515193  |
                  ------------------------------------------ 
                 :  kinetic energy    =    195.48262444388  :
                 :  potential energy  =   -391.84954959580  :
                 :  virial theorem    =      1.99549669219  :
                 :  wavefunction norm =      1.00000000000  :
                  .......................................... 


 orbitals $scfmo  will be written to file mos

    irrep                 16a         17a         18a         19a         20a   
 eigenvalues H         -0.29395    -0.29295    -0.28935    -0.28074    -0.26981
            eV          -7.9989     -7.9717     -7.8738     -7.6394     -7.3420
 occupation              2.0000      2.0000      2.0000      2.0000      2.0000 

    irrep                 21a         22a         23a         24a         25a   
 eigenvalues H          0.00243     0.01862     0.03418     0.03464     0.05952
            eV           0.0660      0.5067      0.9300      0.9426      1.6197
 
 
 
 
 ==============================================================================
                           electrostatic moments
 ==============================================================================

 reference point for electrostatic moments:    0.00000   0.00000   0.00000

 
              nuc           elec       ->  total
 ------------------------------------------------------------------------------
                          charge      
 ------------------------------------------------------------------------------
          40.000000     -40.000000      -0.000000
 
 ------------------------------------------------------------------------------
                       dipole moment  
 ------------------------------------------------------------------------------
   x      -3.515504       3.505698      -0.009806
   y      -6.956702       6.957887       0.001185
   z      72.957992     -72.961320      -0.003328
 
   | dipole moment | =     0.0104 a.u. =     0.0265 debye 
 
 ------------------------------------------------------------------------------
                     quadrupole moment
 ------------------------------------------------------------------------------
  xx     143.781838    -169.177391     -25.395553
  yy     151.684849    -177.109299     -25.424450
  zz     173.849430    -198.339895     -24.490465
  xy       0.247570      -0.241852       0.005718
  xz      20.889581     -21.111703      -0.222122
  yz     -11.254370      11.248723      -0.005647
 
     1/3  trace=     -25.103489
     anisotropy=       0.997187
 
 ==============================================================================
 


    ------------------------------------------------------------------------
         total  cpu-time :  2 minutes and 19 seconds
         total wall-time :  26.91 seconds
    ------------------------------------------------------------------------

   ****  ridft : all done  ****


    2019-03-12 22:22:51.883 

