Using Slurm to start processes with PMI2
STARTING ridft ON 8 PROCESSORS!
RUNNING PROGRAM /beegfs/modfac/apps/TURBOMOLE/7.0_intel_GA/bin/em64t-unknown-linux-gnu_mpi/ridft_mpi.
PLEASE WAIT UNTIL ridft HAS FINISHED.
Look for the output in slave1.output.
  this is node-proc. number 1 running on node c-16-37.local
  the total number of node-proc. spawned is            8
  parallel platform: MPP, or cluster with fast interconnect

 ridft (c-16-37.local) : TURBOMOLE V7.0.2( ) 15 Jan 2016 at 17:47:42
 Copyright (C) 2016 TURBOMOLE GmbH, Karlsruhe


    2017-10-30 01:01:44.959 



                                  r i d f t

                        DFT program with RI approximation 
                                for coulomb part 




                                                 
                                 References:     
                                                 
          TURBOMOLE:                             
              R. Ahlrichs, M. Baer, M. Haeser, H. Horn, and
              C. Koelmel
              Electronic structure calculations on workstation
              computers: the program system TURBOMOLE
              Chem. Phys. Lett. 162: 165 (1989)
          Density Functional:                              
              O. Treutler and R. Ahlrichs                      
              Efficient Molecular Numerical Integration Schemes
              J. Chem. Phys. 102: 346 (1995)                   
          Parallel Version:                                
              Performance of parallel TURBOMOLE for Density    
              Functional Calculations                          
              M. v. Arnim and R. Ahlrichs                      
              J. Comp. Chem. 19: 1746 (1998)                   
          RI-J Method:                                     
              Auxiliary Basis Sets to approximate Coulomb      
              Potentials                                       
              Chem. Phys. Lett. 240: 283 (1995)                
              K. Eichkorn, O. Treutler, H. Oehm, M. Haeser     
              and R. Ahlrichs                                  
              Chem. Phys. Lett. 242: 652 (1995)                
                                                           
              Auxiliary Basis Sets for Main Row Atoms and their
              Use to approximate Coulomb Potentials            
              K. Eichkorn, F. Weigend, O. Treutler and         
              R. Ahlrichs                                      
              Theo. Chem. Acc. 97: 119 (1997)                   
                                                           
              Accurate Coulomb-fitting basis sets for H to Rn 
              F. Weigend                                        
              Phys. Chem. Chem. Phys. 8: 1057 (2006)            
                                                           
          Multipole accelerated RI-J (MARI-J):             
              Fast evaluation of the Coulomb potential for     
              electron densities using multipole accelerated   
              resolution of identity approximation             
              M. Sierka, A. Hogekamp and R. Ahlrichs           
              J. Chem. Phys. 118: 9136 (2003)                  
          RI-JK Method:                                     
              A fully direct RI-HF algorithm: Implementation,
              optimised auxiliary basis sets, demonstration of
              accuracy and efficiency                         
              F. Weigend                                      
              Phys. Chem. Chem. Phys. 4: 4285 (2002)           
          Two-component HF and DFT with spin-orbit coupling:  
              Self-consistent treatment of spin-orbit         
              interactions with efficient Hartree-Fock and    
              density functional methods                      
              M. K. Armbruster, F. Weigend, C. van Wüllen and 
              W. Klopper                                      
              Phys. Chem. Chem. Phys. 10: 1748 (2008)         
          Relativistic all-electron 2c calculations           
              An efficient implementation of two-component    
              relativistic exact-decoupling methods for large 
              molecules                                       
              D. Peng, N. Middendorf, F. Weigend, M. Reiher   
              J. Chem. Phys. 138, 184105 (2013)               
                                         


 


              +--------------------------------------------------+
              |      general information about current run       |
              +--------------------------------------------------+

 

 SCF run will be profiled !


 DENSITY CONVERGENCE CHECK SWITCHED ON !
 SCF CONVERGENCE IF RMS(delta[D]) <     0.1000000000E-06

 TPSS meta-GGA functional
 exchange:    LDA + TPSS
 correlation: LDA (PW) + TPSS
 A DFT calculation using the RI-J approximation will be carried out.
 Allocatable memory for RI due to $ricore (MB):       10000


              +--------------------------------------------------+
              | Atomic coordinate, charge and isotop information |
              +--------------------------------------------------+

                    atomic coordinates            atom    charge  isotop
          1.89788829    2.82782013    0.00000000    c      6.000     0
         -0.54109357    1.82559836    0.00000000    c      6.000     0
          3.98869917    1.21376018    0.00000000    c      6.000     0
         -0.92437507   -0.79419815    0.00000000    c      6.000     0
          3.62610223   -1.40324310    0.00000000    c      6.000     0
          1.18384529   -2.39655000    0.00000000    c      6.000     0
         -3.57708018   -1.89601387    0.00000000    c      6.000     0
         -3.80554842   -4.26228773    0.00000000    o      8.000     0
         -5.40461423   -0.32239433    0.00000000    o      8.000     0
          2.17080958    4.86372613    0.00000000    h      1.000     0
         -2.17813757    3.06220335    0.00000000    h      1.000     0
          5.88961833    1.99094566    0.00000000    h      1.000     0
          5.24757495   -2.66429274    0.00000000    h      1.000     0
          0.87296302   -4.42489949    0.00000000    h      1.000     0
         -8.44665182    2.37982561    0.00000000    na    11.000     0
 
       center of nuclear mass  :   -1.81486987   -0.16148536    0.00000000
       center of nuclear charge:   -1.63064495   -0.15417095    0.00000000

              +--------------------------------------------------+
              |               basis set information              |
              +--------------------------------------------------+

              we will work with the 1s 3p 5d 7f 9g ... basis set
              ...i.e. with spherical basis functions...

   type   atoms  prim   cont   basis
   ---------------------------------------------------------------------------
    c        7     50     30   cc-pVTZ   [4s3p2d1f|18s5p2d1f]
    o        2     50     30   cc-pVTZ   [4s3p2d1f|18s5p2d1f]
    h        5     16     14   cc-pVTZ   [3s2p1d|5s2p1d]
    na       1    115     34   cc-pVTZ   [5s4p2d1f|44s18p2d1f]
   ---------------------------------------------------------------------------
   total:   15    645    374
   ---------------------------------------------------------------------------

   total number of primitive shells          :  125
   total number of contracted shells         :  132
   total number of cartesian basis functions :  429
   total number of SCF-basis functions       :  374


 integral neglect threshold       :  0.78E-13
 integral storage threshold THIZE :  0.10E-04
 integral storage threshold THIME :         5

 RI-J AUXILIARY BASIS SET information:

              we will work with the 1s 3p 5d 7f 9g ... basis set
              ...i.e. with spherical basis functions...

   type   atoms  prim   cont   basis
   ---------------------------------------------------------------------------
    c        7     70     49   cc-pVTZ   [6s4p3d1f1g|12s5p4d2f1g]
    o        2     70     49   cc-pVTZ   [6s4p3d1f1g|12s5p4d2f1g]
    h        5     16     11   cc-pVTZ   [3s1p1d|5s2p1d]
    na       1     77     56   universal   [8s4p4d1f1g|14s5p5d2f1g]
   ---------------------------------------------------------------------------
   total:   15    787    552
   ---------------------------------------------------------------------------

   total number of primitive shells          :   83
   total number of contracted shells         :  178
   total number of cartesian basis functions :  678
   total number of SCF-basis functions       :  552


 symmetry group of the molecule :   c1 

 the group has the following generators :
   c1(z)

    1 symmetry operations found

 there are 1 real representations :   a   

 maximum number of shells which are related by symmetry :  1


    mo occupation :
   irrep   mo's   occupied
    a      374       37
 
 number of basis functions   :          374
 number of occupied orbitals :           37
 
  
           ------------------
           density functional
           ------------------
 TPSS meta-GGA functional
 exchange:    LDA + TPSS
 correlation: LDA (PW) + TPSS
 grinp -> nfun, dfgga, dfhybrid 
           5 F F
 iterations will be done with small grid
  
 spherical integration : Lebedev's spherical grid
 spherical gridsize    :           5
    i.e. gridpoints    :         590
 value for diffuse not defined
 radial integration    : Chebyshev 2nd kind (scaling 3)
 radial gridsize       :           8
 integration cells     :          15
 partition function    : becke
 partition sharpness   :           3
  

 <rddim> : input of entry tasksize
           from data group '$pardft' failed !

               Default values taken

 <rddim> : input of entry memdiv
           from data group '$pardft' failed !

               Default values taken
  RIDFT: memory allocation for DFT gridpoints
  MEMORY is divided by 1 as DEFAULT
 Each node can hold at most  the            1 -th part
 of the gridpoints    

 biggest AO integral is expected to be     6.588557154
  
           ------------------------
               RI-J - INFORMATION
           ------------------------
 
 
 **************************************************
 *      MEMORY ALLOCATION FOR PARALLEL RI-DFT     *
 **************************************************
 
 
MEMORY FOR (MU NU/ ALPHA), SEQUENTIAL RUN               9998 MByte
 
            DIFFERENCE IN MEMORY NEED:       DIAG./SLAVE  
 
      TOTAL DIFFERENCE :                      9 MByte
 
      difference in xcore:                    3 MByte
      difference in fatmat:                   3 MByte
      getcor calls skipped by slaves:         4 MByte
 
 
           Integral memory available for diagonal.      9998 MByte
 
           Integral memory available for slave             0 MByte
 
         MEMORY FOR (MU NU/ ALPHA) ON DIAGONALIZER      9998 MByte
 
         MEMORY FOR (MU NU/ ALPHA) ON ONE SLAVE            0 MByte
 
         TOTAL MEMORY FOR (MU NU/ ALPHA),ALL NODES      9998 MByte
 
 Contributions to RI integral batches: 
  neglected integral batches:         794
  direct contribution:                  0
  memory contribution:        7984
 Memory core needed for (P|Q) and Cholesky      3 MByte
 Memory core minimum needed except of (P|Q)     1 MByte
 Total minimum memory core needed (sum)         4 MByte
  
 ****************************************
 Memory allocated for RI-J 10001 MByte
 ****************************************
                                            

          ------------------------
          nuclear repulsion energy  :   478.457652982    
          ------------------------

 
          -----------------
          -S integrals
          -----------------

 1e-integrals will be neglected if expon. factor < 0.779012E-14
 
          -----------------
          -T+V integrals
          -----------------

 1e-integrals will be neglected if expon. factor < 0.779012E-14
 Difference densities >>NOT<< switched on in parallel ridft!

 automatic virtual orbital shift switched on 
      shift if e(lumo)-e(homo) < 0.10000000    


 DIIS switched on: error vector is FDS-SDF
 Max. Iterations for DIIS is     :   4
 DIIS matrix (see manual) 
    Scaling factor of diagonals  :  1.200
    threshold for scaling factor :  0.000

 scf convergence criterion : increment of total energy < .1000000D-08
                  and increment of one-electron energy < .1000000D-05


 <geterg> : there is no data group $energy 

  MOs are in ASCII format !


 reading orbital data $scfmo  from file mos . 

 orbital characterization : expanded
 
 mo provided and orthogonalized by Cholesky decomposition

 DSCF restart information will be dumped onto file mos


 Starting SCF iterations


 ITERATION  ENERGY          1e-ENERGY        2e-ENERGY     RMS[dD(SAO)]   TOL
   1  -581.15257247830    -1742.8114002     683.20117472    0.000D+00 0.777D-13
                            Exc = -71.3424440874     Coul =  754.543618803    
                              N = 73.999835899    
                            current damping = 0.700
 
          max. resid. norm for Fia-block=  3.841D-01 for orbital     25a         
          max. resid. fock norm         =  4.678D+00 for orbital    350a         

 ITERATION  ENERGY          1e-ENERGY        2e-ENERGY     RMS[dD(SAO)]   TOL
   2  -582.50712703642    -1748.7489675     687.78418753    0.431D-02 0.777D-13
                            Exc = -71.3956569114     Coul =  759.179844440    
                              N = 73.999853673    
                            current damping = 0.650
 
          Norm of current diis error:  2.3535    
          max. resid. norm for Fia-block=  1.457D-01 for orbital      3a         
          max. resid. fock norm         =  3.928D-01 for orbital    367a         

 ITERATION  ENERGY          1e-ENERGY        2e-ENERGY     RMS[dD(SAO)]   TOL
   3  -582.70412045308    -1751.2489877     690.08721426    0.294D-02 0.777D-13
                            Exc = -71.6772656972     Coul =  761.764479955    
                              N = 73.999860731    
                            current damping = 0.550
 
          Norm of current diis error:  1.1480    
          max. resid. norm for Fia-block=  5.801D-02 for orbital      3a         
          max. resid. fock norm         =  7.306D-02 for orbital    367a         

 ITERATION  ENERGY          1e-ENERGY        2e-ENERGY     RMS[dD(SAO)]   TOL
   4  -582.76782264862    -1750.9653977     689.73992204    0.244D-02 0.777D-13
                            Exc = -71.5880328234     Coul =  761.327954863    
                              N = 73.999855260    
                            current damping = 0.600
 
          Norm of current diis error: 0.46340    
          max. resid. norm for Fia-block=  3.372D-02 for orbital     15a         
          max. resid. fock norm         =  5.640D-02 for orbital    367a         

 ITERATION  ENERGY          1e-ENERGY        2e-ENERGY     RMS[dD(SAO)]   TOL
   5  -582.77760020229    -1751.6464505     690.41119735    0.661D-03 0.777D-13
                            Exc = -71.6892788426     Coul =  762.100476196    
                              N = 73.999854678    
                            current damping = 0.650
 
          Norm of current diis error: 0.22513    
          max. resid. norm for Fia-block=  8.523D-03 for orbital     17a         
          max. resid. fock norm         =  1.438D-02 for orbital     30a         
          mo-orthogonalization: Cholesky decomposition

 ITERATION  ENERGY          1e-ENERGY        2e-ENERGY     RMS[dD(SAO)]   TOL
   6  -582.78035546207    -1751.6706622     690.43265379    0.511D-03 0.777D-13
                            Exc = -71.6699588530     Coul =  762.102612647    
                              N = 73.999851410    
                            current damping = 0.500
 
          Norm of current diis error: 0.92650E-01
          max. resid. norm for Fia-block=  5.176D-03 for orbital     35a         
          max. resid. fock norm         =  8.349D-03 for orbital    330a         
          irrep a   : virtual orbitals shifted by    0.00847

 ITERATION  ENERGY          1e-ENERGY        2e-ENERGY     RMS[dD(SAO)]   TOL
   7  -582.78072908338    -1751.4924322     690.25405017    0.203D-03 0.777D-13
                            Exc = -71.6636266756     Coul =  761.917676850    
                              N = 73.999850433    
                            current damping = 0.550
 
          Norm of current diis error: 0.60455E-01
          max. resid. norm for Fia-block=  2.620D-03 for orbital     35a         
          max. resid. fock norm         =  4.566D-03 for orbital    361a         
          irrep a   : virtual orbitals shifted by    0.01071

 ITERATION  ENERGY          1e-ENERGY        2e-ENERGY     RMS[dD(SAO)]   TOL
   8  -582.78089673223    -1751.5692342     690.33068446    0.776D-04 0.777D-13
                            Exc = -71.6702791867     Coul =  762.000963647    
                              N = 73.999849915    
                            current damping = 0.600
 
          Norm of current diis error: 0.17940E-01
          max. resid. norm for Fia-block=  1.434D-03 for orbital     36a         
          max. resid. fock norm         =  2.514D-03 for orbital    357a         
          irrep a   : virtual orbitals shifted by    0.00683

 ITERATION  ENERGY          1e-ENERGY        2e-ENERGY     RMS[dD(SAO)]   TOL
   9  -582.78089436153    -1751.6329779     690.39443052    0.485D-04 0.777D-13
                            Exc = -71.6758790600     Coul =  762.070309583    
                              N = 73.999850295    
                            current damping = 0.650
 
          Norm of current diis error: 0.18442E-01
          max. resid. norm for Fia-block=  7.764D-04 for orbital     37a         
          max. resid. fock norm         =  8.361D-04 for orbital     37a         
          irrep a   : virtual orbitals shifted by    0.00594

 ITERATION  ENERGY          1e-ENERGY        2e-ENERGY     RMS[dD(SAO)]   TOL
  10  -582.78091069549    -1751.6139365     690.37537277    0.311D-04 0.777D-13
                            Exc = -71.6728740351     Coul =  762.048246809    
                              N = 73.999850016    
                            current damping = 0.700
 
          Norm of current diis error: 0.91993E-02
          max. resid. norm for Fia-block=  2.781D-04 for orbital     34a         
          max. resid. fock norm         =  4.722D-04 for orbital    367a         
          irrep a   : virtual orbitals shifted by    0.00362
          mo-orthogonalization: Cholesky decomposition

 ITERATION  ENERGY          1e-ENERGY        2e-ENERGY     RMS[dD(SAO)]   TOL
  11  -582.78091433124    -1751.6029393     690.36437201    0.824D-05 0.777D-13
                            Exc = -71.6729281243     Coul =  762.037300131    
                              N = 73.999849960    
                            current damping = 0.550
 
          Norm of current diis error: 0.19486E-02
          max. resid. norm for Fia-block=  1.568D-04 for orbital     36a         
          max. resid. fock norm         =  2.626D-04 for orbital    368a         
          irrep a   : virtual orbitals shifted by    0.01242

 ITERATION  ENERGY          1e-ENERGY        2e-ENERGY     RMS[dD(SAO)]   TOL
  12  -582.78091430491    -1751.6022604     690.36369310    0.466D-05 0.777D-13
                            Exc = -71.6728168106     Coul =  762.036509912    
                              N = 73.999849920    
                            current damping = 0.600
 
          Norm of current diis error: 0.21921E-02
          max. resid. norm for Fia-block=  6.047D-05 for orbital     35a         
          max. resid. fock norm         =  1.032D-04 for orbital    353a         
          irrep a   : virtual orbitals shifted by    0.00965

 ITERATION  ENERGY          1e-ENERGY        2e-ENERGY     RMS[dD(SAO)]   TOL
  13  -582.78091449953    -1751.6001540     690.36158652    0.158D-05 0.777D-13
                            Exc = -71.6726749065     Coul =  762.034261425    
                              N = 73.999849918    
                            current damping = 0.450
 
          Norm of current diis error: 0.90216E-03
          max. resid. norm for Fia-block=  2.678D-05 for orbital     36a         
          max. resid. fock norm         =  4.750D-05 for orbital    353a         
          irrep a   : virtual orbitals shifted by    0.01811

 ITERATION  ENERGY          1e-ENERGY        2e-ENERGY     RMS[dD(SAO)]   TOL
  14  -582.78091453804    -1751.6007987     690.36223116    0.101D-05 0.777D-13
                            Exc = -71.6727529525     Coul =  762.034984117    
                              N = 73.999849925    
                            current damping = 0.500
 
          Norm of current diis error: 0.14674E-03
          max. resid. norm for Fia-block=  7.608D-06 for orbital     35a         
          max. resid. fock norm         =  2.130D-05 for orbital     38a         
          irrep a   : virtual orbitals shifted by    0.01531

 ITERATION  ENERGY          1e-ENERGY        2e-ENERGY     RMS[dD(SAO)]   TOL
  15  -582.78091453908    -1751.6006870     690.36211947    0.239D-06 0.777D-13
                            Exc = -71.6727368739     Coul =  762.034856349    
                              N = 73.999849925    
                            current damping = 0.550
 
          Norm of current diis error: 0.61215E-04
          max. resid. norm for Fia-block=  3.261D-06 for orbital     37a         
          max. resid. fock norm         =  8.911D-06 for orbital     38a         
          irrep a   : virtual orbitals shifted by    0.01248
          mo-orthogonalization: Cholesky decomposition

 ITERATION  ENERGY          1e-ENERGY        2e-ENERGY     RMS[dD(SAO)]   TOL
  16  -582.78091453926    -1751.6007415     690.36217401    0.117D-06 0.777D-13
                            Exc = -71.6727519975     Coul =  762.034926009    
                              N = 73.999849926    
                            current damping = 0.600
 
          Norm of current diis error: 0.19516E-04
          max. resid. norm for Fia-block=  1.020D-06 for orbital     37a         
          max. resid. fock norm         =  4.053D-06 for orbital     38a         
          irrep a   : virtual orbitals shifted by    0.00966

 ENERGY & DENSITY CONVERGED !


 ITERATION  ENERGY          1e-ENERGY        2e-ENERGY     RMS[dD(SAO)]   TOL
  17  -582.78072373355    -1751.6007487     690.36237197    0.356D-07 0.777D-13
                            Exc = -71.6725592335     Coul =  762.034931205    
                              N = 73.999989042    
                            current damping = 0.450
 
          Norm of current diis error: 0.57248E-05
          max. resid. norm for Fia-block=  3.775D-07 for orbital     37a         
          max. resid. fock norm         =  1.961D-06 for orbital     38a         

 End of SCF iterations

   convergence criteria satisfied after   17 iterations


                  ------------------------------------------ 
                 |  total energy      =   -582.78072373355  |
                  ------------------------------------------ 
                 :  kinetic energy    =    579.57562946630  :
                 :  potential energy  =  -1162.35635319985  :
                 :  virial theorem    =      1.99450034269  :
                 :  wavefunction norm =      1.00000000000  :
                  .......................................... 


 <geterg> : there is no data group $energy 


 <skperg> : $end is missing 


 orbitals $scfmo  will be written to file mos

    irrep                 33a         34a         35a         36a         37a   
 eigenvalues H         -0.20647    -0.20164    -0.18424    -0.18344    -0.15209
            eV          -5.6185     -5.4870     -5.0133     -4.9916     -4.1387
 occupation              2.0000      2.0000      2.0000      2.0000      2.0000 

    irrep                 38a         39a         40a         41a         42a   
 eigenvalues H         -0.09563    -0.02974    -0.01924    -0.01547    -0.00907
            eV          -2.6023     -0.8092     -0.5236     -0.4209     -0.2468
 
 
 ! grave: sending quit signal to master process
 
 
 
 
 ==============================================================================
                           electrostatic moments
 ==============================================================================

 reference point for electrostatic moments:    0.00000   0.00000   0.00000

 
              nuc           elec       ->  total
 ------------------------------------------------------------------------------
                          charge      
 ------------------------------------------------------------------------------
          74.000000     -74.000000       0.000000
 
 ------------------------------------------------------------------------------
                       dipole moment  
 ------------------------------------------------------------------------------
   x    -120.667726     117.693320      -2.974406
   y     -11.408651      14.874560       3.465909
   z       0.000000       0.000000       0.000000
 
   | dipole moment | =     4.5672 a.u. =    11.6087 debye 
 
 ------------------------------------------------------------------------------
                     quadrupole moment
 ------------------------------------------------------------------------------
  xx    1494.812409   -1495.822590      -1.010181
  yy     420.587038    -463.036862     -42.449824
  zz       0.000000     -43.743600     -43.743600
  xy     -26.777035       1.411987     -25.365048
  xz       0.000000      -0.000000      -0.000000
  yz       0.000000       0.000000       0.000000
 
     1/3  trace=     -29.067869
     anisotropy=      60.849720
 
 ==============================================================================
 

    ridft profiling
  --------------------------------------------------------------------
             module   cpu total (s)       %  wall total (s)       %

               RIDFT            86.8  100.00            87.0  100.00
         Ridft_b_scf             2.6    2.98             2.6    2.99
        b_scf_prelim             0.0    0.00             0.0    0.00
        b_scf_molinp             0.0    0.02             0.0    0.02
         b_scf_init0             0.0    0.00             0.0    0.00
        b_scf_auxbas             0.0    0.02             0.0    0.02
      b_scf_symmetry             0.0    0.00             0.0    0.00
         b_scf_cosmo             0.0    0.00             0.0    0.00
        b_scf_params             0.2    0.18             0.2    0.19
          b_scf_ri-j             2.2    2.56             2.2    2.56
    b_scf_ri-j_auxpq             2.2    2.56             2.2    2.56
     ri-j_auxpq_chol             0.0    0.03             0.0    0.03
         b_scf_1elec             0.1    0.08             0.1    0.08
       b_scf_moinput             0.1    0.11             0.1    0.11
     moinput_orthmos             0.1    0.09             0.1    0.09
    b_scf_dft-dstmax             0.0    0.00             0.0    0.00
           Ridft_scf            84.2   96.97            84.3   96.95
          Scf_b_loop             0.0    0.00             0.0    0.00
                noga             0.0    0.00             0.0    0.00
            Scf_loop            84.1   96.84            84.2   96.81
     scf_loop_mkdmat             0.1    0.12             0.1    0.12
       scf_loop_ri-j             4.1    4.67             4.1    4.67
      parlp1.bc.dens             0.9    1.00             0.9    0.99
        parlp1.gs.gp             0.0    0.00             0.0    0.00
        parlp2.bc.gq             0.0    0.00             0.0    0.00
        scf_loop_dft            76.0   87.54            76.1   87.51
      pardft.bc.dens             0.0    0.00             0.0    0.00
        dft_grid_con             0.2    0.25             0.2    0.26
          dft_xcmrhf            73.3   84.39            73.4   84.38
          dft_getval             4.5    5.20             4.5    5.20
          funct2 dst             0.1    0.09             0.1    0.09
      funct2 f2loop1             1.3    1.49             1.3    1.52
      funct2 f2loop2             1.9    2.15             1.9    2.16
          funct2 s+c             1.0    1.20             1.0    1.18
        funct2 cmf_2             0.9    0.98             0.8    0.94
          dft_mkdens            32.9   37.91            33.0   37.96
        dft_mgga-fun             0.5    0.63             0.5    0.61
          dft_mkfock            35.1   40.38            35.1   40.39
     pardft.red.fock             8.2    9.40             8.2    9.40
     scf_loop_energy             0.0    0.01             0.0    0.00
     scf_loop_mkfock             0.0    0.00             0.0    0.00
       scf_loop_diis             0.4    0.42             0.4    0.42
       scf_loop_diag             1.9    2.21             1.9    2.21
         diag_tritrn             0.3    0.33             0.3    0.33
          diag_rdiag             1.6    1.86             1.6    1.86
     scf_loop_modump             1.5    1.68             1.5    1.69
      scf_loop_ortho             0.1    0.13             0.1    0.13
          Scf_a_loop             0.1    0.13             0.1    0.13
         Ridft_a_scf             0.0    0.05             0.1    0.07
         a_scf_fanal             0.0    0.04             0.0    0.04
 


    ------------------------------------------------------------------------
         total  cpu-time :  1 minutes and 27 seconds
         total wall-time :  1 minutes and 27 seconds
    ------------------------------------------------------------------------


   ****  ridft : all done  ****


    2017-10-30 01:03:12.210 

