           Doing BLAS/Lapack in the master proc. with  8 CPUs.
           SMPCPUS    set: Shared-memory Parallelization with   8 CPUs.

           SMP Parallelization Reference:
           C. van Wullen, J. Comput. Chem. 32 (2011) 1195--1201
 operating system is UNIX !

 ridft (c-18-313.gp.local) : TURBOMOLE V7.2 ( 21454 ) 4 Oct 2017 at 12:48:15
 Copyright (C) 2017 TURBOMOLE GmbH, Karlsruhe


    2018-04-28 21:01:13.731 



                                  r i d f t

                        DFT program with RI approximation 
                                for coulomb part 




                                                 
                                 References:     
                                                 
          TURBOMOLE:                             
              R. Ahlrichs, M. Baer, M. Haeser, H. Horn, and
              C. Koelmel
              Electronic structure calculations on workstation
              computers: the program system TURBOMOLE
              Chem. Phys. Lett. 162: 165 (1989)
          Density Functional:                              
              O. Treutler and R. Ahlrichs                      
              Efficient Molecular Numerical Integration Schemes
              J. Chem. Phys. 102: 346 (1995)                   
          Parallel Version:                                
              Performance of parallel TURBOMOLE for Density    
              Functional Calculations                          
              M. v. Arnim and R. Ahlrichs                      
              J. Comp. Chem. 19: 1746 (1998)                   
          RI-J Method:                                     
              Auxiliary Basis Sets to approximate Coulomb      
              Potentials                                       
              Chem. Phys. Lett. 240: 283 (1995)                
              K. Eichkorn, O. Treutler, H. Oehm, M. Haeser     
              and R. Ahlrichs                                  
              Chem. Phys. Lett. 242: 652 (1995)                
                                                           
              Auxiliary Basis Sets for Main Row Atoms and their
              Use to approximate Coulomb Potentials            
              K. Eichkorn, F. Weigend, O. Treutler and         
              R. Ahlrichs                                      
              Theo. Chem. Acc. 97: 119 (1997)                   
                                                           
              Accurate Coulomb-fitting basis sets for H to Rn 
              F. Weigend                                        
              Phys. Chem. Chem. Phys. 8: 1057 (2006)            
                                                           
          Multipole accelerated RI-J (MARI-J):             
              Fast evaluation of the Coulomb potential for     
              electron densities using multipole accelerated   
              resolution of identity approximation             
              M. Sierka, A. Hogekamp and R. Ahlrichs           
              J. Chem. Phys. 118: 9136 (2003)                  
          RI-JK Method:                                     
              A fully direct RI-HF algorithm: Implementation,
              optimised auxiliary basis sets, demonstration of
              accuracy and efficiency                         
              F. Weigend                                      
              Phys. Chem. Chem. Phys. 4: 4285 (2002)           
          Two-component HF and DFT with spin-orbit coupling:  
              Self-consistent treatment of spin-orbit         
              interactions with efficient Hartree-Fock and    
              density functional methods                      
              M. K. Armbruster, F. Weigend, C. van Wüllen and 
              W. Klopper                                      
              Phys. Chem. Chem. Phys. 10: 1748 (2008)         
          Relativistic all-electron 2c calculations           
              An efficient implementation of two-component    
              relativistic exact-decoupling methods for large 
              molecules                                       
              D. Peng, N. Middendorf, F. Weigend, M. Reiher   
              J. Chem. Phys. 138, 184105 (2013)               
                                         




              +--------------------------------------------------+
              |      general information about current run       |
              +--------------------------------------------------+

 

 DENSITY CONVERGENCE CHECK SWITCHED ON !
 SCF CONVERGENCE IF RMS(delta[D]) <     0.1000000000E-06

 TPSS meta-GGA functional
 exchange:    LDA + TPSS
 correlation: LDA (PW) + TPSS
 A DFT calculation using the RI-J approximation will be carried out.
 Allocatable memory for RI due to $ricore (MB):                  5000


              +--------------------------------------------------+
              | Atomic coordinate, charge and isotop information |
              +--------------------------------------------------+

                    atomic coordinates            atom    charge  isotop
          1.34670449    2.11837487    0.11440550    c      6.000     0
          2.56594885    3.75375042    0.24138827    h      1.000     0
          2.37772094   -0.30094248    0.23476733    c      6.000     0
          4.39352686   -0.54254014    0.46627676    h      1.000     0
          0.80669567   -2.40850634    0.08059763    c      6.000     0
          1.60710748   -4.28671652    0.17905146    h      1.000     0
         -1.79444207   -2.09773596   -0.18956522    c      6.000     0
         -3.01308460   -3.73461606   -0.30937364    h      1.000     0
         -2.82613388    0.32323872   -0.30527773    c      6.000     0
         -4.84484734    0.56544602   -0.51722393    h      1.000     0
         -1.25445237    2.43140269   -0.15760587    c      6.000     0
         -2.05394465    4.31046569   -0.25111840    h      1.000     0
          3.75632288    2.09713718    7.01148787    c      0.000     0
          4.97490356    3.73398724    7.13195927    h      0.000     0
          4.78802477   -0.32388753    7.12774332    c      0.000     0
          6.80664323   -0.56605036    7.34079902    h      0.000     0
          3.21643501   -2.43206619    6.97911555    c      0.000     0
          4.01594357   -4.31111997    7.07294737    h      0.000     0
          0.61541301   -2.11906135    6.70564053    c      0.000     0
         -0.60365422   -3.75444970    6.57783338    h      0.000     0
         -0.41554573    0.30022793    6.58476263    c      0.000     0
         -2.43118060    0.54179013    6.35198851    h      0.000     0
          1.15534004    2.40780313    6.73985424    c      0.000     0
          0.35499401    4.28601145    6.64089130    h      0.000     0
 
       center of nuclear mass  :    0.98100866   -0.00033478    3.41049055
       center of nuclear charge:   -0.22401754    0.01097091   -0.03635880

              +--------------------------------------------------+
              |               basis set information              |
              +--------------------------------------------------+

              we will work with the 1s 3p 5d 7f 9g ... basis set
              ...i.e. with spherical basis functions...

   type   atoms  prim   cont   basis
   ---------------------------------------------------------------------------
    c       12     77     55   cc-pVQZ   [5s4p3d2f1g|21s6p3d2f1g]
    h       12     32     30   cc-pVQZ   [4s3p2d1f|6s3p2d1f]
   ---------------------------------------------------------------------------
   total:   24   1308   1020
   ---------------------------------------------------------------------------

   total number of primitive shells          :   45
   total number of contracted shells         :  300
   total number of cartesian basis functions : 1260
   total number of SCF-basis functions       : 1020


 integral neglect threshold       :  0.26E-13
 integral storage threshold THIZE :  0.10E-04
 integral storage threshold THIME :         5

 RI-J AUXILIARY BASIS SET information:

              we will work with the 1s 3p 5d 7f 9g ... basis set
              ...i.e. with spherical basis functions...

   type   atoms  prim   cont   basis
   ---------------------------------------------------------------------------
    c       12     70     49   cc-pVQZ   [6s4p3d1f1g|12s5p4d2f1g]
    h       12     16     11   cc-pVQZ   [3s1p1d|5s2p1d]
   ---------------------------------------------------------------------------
   total:   24   1032    720
   ---------------------------------------------------------------------------

   total number of primitive shells          :   32
   total number of contracted shells         :  240
   total number of cartesian basis functions :  876
   total number of SCF-basis functions       :  720


 symmetry group of the molecule :   c1 

 the group has the following generators :
   c1(z)

    1 symmetry operations found

 there are 1 real representations :   a   

 maximum number of shells which are related by symmetry :  1


    mo occupation :
   irrep   mo's   occupied
    a     1020       21
 
 number of basis functions   :                   1020
 number of occupied orbitals :                     21
 
  
           ------------------
           density functional
           ------------------
 Dummy atoms with grid-point found.
 DFT quadrature threshold dgrenze tightened by factor 1/10.

 TPSS meta-GGA functional
 exchange:    LDA + TPSS
 correlation: LDA (PW) + TPSS
 Dummy atoms with grid-point found.
 DFT quadrature threshold dgrenze tightened by factor 1/10.

 Dummy atoms with grid-point found.
 DFT quadrature threshold dgrenze tightened by factor 1/10.


 iterations will be done with small grid
  
 spherical integration : Lebedev's spherical grid
 spherical gridsize    :                     5
    i.e. gridpoints    :                   590
 value for diffuse not defined
 radial integration    : Chebyshev 2nd kind (scaling 3)
 radial gridsize       :                     8
 integration cells     :                    24
 partition function    : becke
 partition sharpness   :                     3
  
 found dummy atom(s) with basis: included in dft

 biggest AO integral is expected to be     3.537514283
  
           ------------------------
               RI-J - INFORMATION
           ------------------------
 Contributions to RI integral batches: 
  neglected integral batches:                 11260
  direct contribution:                            0
  memory contribution:                 33890
 Memory core needed for (P|Q) and Cholesky      4 MByte
 Memory core minimum needed except of (P|Q)     5 MByte
 Total minimum memory core needed (sum)         9 MByte
  
 ****************************************
 Memory allocated for RI-J  3920 MByte
 ****************************************
                                            

          ------------------------
          nuclear repulsion energy  :   203.712002479    
          ------------------------


         -----------------
         -S,T+V- integrals
         -----------------

 1e-integrals will be neglected if expon. factor < 0.265235E-14
 Difference densities >>NOT<< switched on in parallel ridft!

 DIIS switched on: error vector is FDS-SDF
 Max. Iterations for DIIS is     :   4
 DIIS matrix (see manual) 
    Scaling factor of diagonals  :  1.200
    threshold for scaling factor :  0.000

 scf convergence criterion : increment of total energy < .1000000D-08
                  and increment of one-electron energy < .1000000D-05

  MOs are in ASCII format !


 automatic virtual orbital shift switched on 
      shift if e(lumo)-e(homo) < 0.10000000    


 reading orbital data $scfmo  from file mos
 orbital characterization : expanded
 mo provided and orthogonalized by Cholesky decomposition

 DSCF restart information will be dumped onto file mos


 Starting SCF iterations

          Overall gridpoints after grid construction =        138742

 ITERATION  ENERGY          1e-ENERGY        2e-ENERGY     RMS[dD(SAO)]   TOL
   1  -231.61178165528    -704.59371800     269.26993387    0.000D+00 0.265D-13
                            Exc = -33.8077010137     Coul =  303.077634883    
                              N = 41.999940512    
                            current damping = 0.700
 
          max. resid. norm for Fia-block=  2.733D-01 for orbital     12a         
          max. resid. fock norm         =  1.703D+01 for orbital    963a         

 ITERATION  ENERGY          1e-ENERGY        2e-ENERGY     RMS[dD(SAO)]   TOL
   2  -232.22127330475    -711.60621781     275.67294203    0.262D-02 0.265D-13
                            Exc = -34.4931882978     Coul =  310.166130325    
                              N = 41.999960861    
                            current damping = 0.650
 
          Norm of current diis error:  2.8125    
          max. resid. norm for Fia-block=  1.125D-01 for orbital      5a         
          max. resid. fock norm         =  1.759D-01 for orbital    987a         

 ITERATION  ENERGY          1e-ENERGY        2e-ENERGY     RMS[dD(SAO)]   TOL
   3  -232.34360113422    -713.01304761     276.95744399    0.117D-02 0.265D-13
                            Exc = -34.6910031056     Coul =  311.648447100    
                              N = 41.999969006    
                            current damping = 0.550
 
          Norm of current diis error:  1.3501    
          max. resid. norm for Fia-block=  5.511D-02 for orbital      7a         
          max. resid. fock norm         =  6.238D-02 for orbital      7a         

 ITERATION  ENERGY          1e-ENERGY        2e-ENERGY     RMS[dD(SAO)]   TOL
   4  -232.37958898745    -714.34812449     278.25653302    0.576D-03 0.265D-13
                            Exc = -34.8295153340     Coul =  313.086048358    
                              N = 41.999975022    
                            current damping = 0.450
 
          Norm of current diis error: 0.49479    
          max. resid. norm for Fia-block=  2.096D-02 for orbital      7a         
          max. resid. fock norm         =  2.541D-02 for orbital    977a         

 ITERATION  ENERGY          1e-ENERGY        2e-ENERGY     RMS[dD(SAO)]   TOL
   5  -232.38539301482    -714.59371552     278.49632003    0.278D-03 0.265D-13
                            Exc = -34.8720907330     Coul =  313.368410758    
                              N = 41.999976752    
                            current damping = 0.300
 
          Norm of current diis error: 0.17935    
          max. resid. norm for Fia-block=  7.413D-03 for orbital      7a         
          max. resid. fock norm         =  1.108D-02 for orbital    977a         
          mo-orthogonalization: Cholesky decomposition

 ITERATION  ENERGY          1e-ENERGY        2e-ENERGY     RMS[dD(SAO)]   TOL
   6  -232.38620475250    -714.88786032     278.78965309    0.997D-04 0.265D-13
                            Exc = -34.8988626327     Coul =  313.688515722    
                              N = 41.999977882    
                            current damping = 0.150
 
          Norm of current diis error: 0.44775E-01
          max. resid. norm for Fia-block=  1.660D-03 for orbital     12a         
          max. resid. fock norm         =  4.076D-03 for orbital    977a         

 ITERATION  ENERGY          1e-ENERGY        2e-ENERGY     RMS[dD(SAO)]   TOL
   7  -232.38624596597    -714.80205420     278.70380576    0.422D-04 0.265D-13
                            Exc = -34.8963896957     Coul =  313.600195453    
                              N = 41.999977761    
                            current damping = 0.200
 
          Norm of current diis error: 0.25902E-01
          max. resid. norm for Fia-block=  5.992D-04 for orbital     12a         
          max. resid. fock norm         =  9.757D-04 for orbital    989a         

 ITERATION  ENERGY          1e-ENERGY        2e-ENERGY     RMS[dD(SAO)]   TOL
   8  -232.38625882662    -714.85455119     278.75628989    0.557D-05 0.265D-13
                            Exc = -34.8997649903     Coul =  313.656054875    
                              N = 41.999977919    
                            current damping = 0.250
 
          Norm of current diis error: 0.14630E-02
          max. resid. norm for Fia-block=  7.066D-05 for orbital     21a         
          max. resid. fock norm         =  2.368D-04 for orbital    977a         

 ITERATION  ENERGY          1e-ENERGY        2e-ENERGY     RMS[dD(SAO)]   TOL
   9  -232.38625877536    -714.85542400     278.75716274    0.972D-06 0.265D-13
                            Exc = -34.8998425677     Coul =  313.657005309    
                              N = 41.999977918    
                            current damping = 0.300
 
          Norm of current diis error: 0.21345E-02
          max. resid. norm for Fia-block=  3.304D-05 for orbital     20a         
          max. resid. fock norm         =  7.505D-05 for orbital   1011a         

 ITERATION  ENERGY          1e-ENERGY        2e-ENERGY     RMS[dD(SAO)]   TOL
  10  -232.38625887542    -714.85561606     278.75735471    0.327D-06 0.265D-13
                            Exc = -34.8998630726     Coul =  313.657217782    
                              N = 41.999977922    
                            current damping = 0.150
 
          Norm of current diis error: 0.58076E-03
          max. resid. norm for Fia-block=  1.367D-05 for orbital     21a         
          max. resid. fock norm         =  2.801D-05 for orbital      3a         
          mo-orthogonalization: Cholesky decomposition

 ITERATION  ENERGY          1e-ENERGY        2e-ENERGY     RMS[dD(SAO)]   TOL
  11  -232.38625888303    -714.85555967     278.75729831    0.142D-06 0.265D-13
                            Exc = -34.8998670757     Coul =  313.657165388    
                              N = 41.999977924    
                            current damping = 0.200
 
          Norm of current diis error: 0.12565E-03
          max. resid. norm for Fia-block=  3.492D-06 for orbital     21a         
          max. resid. fock norm         =  8.280D-06 for orbital    977a         

 DENSITY CONVERGED !


 ITERATION  ENERGY          1e-ENERGY        2e-ENERGY     RMS[dD(SAO)]   TOL
  12  -232.38625888331    -714.85557263     278.75731127    0.349D-07 0.265D-13
                            Exc = -34.8998660722     Coul =  313.657177345    
                              N = 41.999977924    
                            current damping = 0.250
 
          Norm of current diis error: 0.59783E-04
          max. resid. norm for Fia-block=  1.811D-06 for orbital     20a         
          max. resid. fock norm         =  4.783D-06 for orbital      6a         

 ENERGY & DENSITY CONVERGED !

          Overall gridpoints after grid construction =        371228

 ITERATION  ENERGY          1e-ENERGY        2e-ENERGY     RMS[dD(SAO)]   TOL
  13  -232.38614907215    -714.85557956     278.75742801    0.121D-07 0.265D-13
                            Exc = -34.8997567905     Coul =  313.657184797    
                              N = 41.999998567    
                            current damping = 0.100
 
          Norm of current diis error: 0.14332E-04
          max. resid. norm for Fia-block=  2.929D-07 for orbital     20a         
          max. resid. fock norm         =  7.013D-07 for orbital    977a         

 End of SCF iterations

   convergence criteria satisfied after    13 iterations


                  ------------------------------------------ 
                 |  total energy      =   -232.38614907215  |
                  ------------------------------------------ 
                 :  kinetic energy    =    231.32840453103  :
                 :  potential energy  =   -463.71455360318  :
                 :  virial theorem    =      1.99544833225  :
                 :  wavefunction norm =      1.00000000000  :
                  .......................................... 


 <geterg> : there is no data group $energy 


 <skperg> : $end is missing 


 orbitals $scfmo  will be written to file mos

    irrep                 17a         18a         19a         20a         21a   
 eigenvalues H         -0.33428    -0.30683    -0.30660    -0.23096    -0.23086
            eV          -9.0964     -8.3492     -8.3431     -6.2848     -6.2821
 occupation              2.0000      2.0000      2.0000      2.0000      2.0000 

    irrep                 22a         23a         24a         25a         26a   
 eigenvalues H         -0.03604    -0.03598     0.01014     0.03773     0.03988
            eV          -0.9808     -0.9792      0.2760      1.0266      1.0853
 
 
 
 
 ==============================================================================
                           electrostatic moments
 ==============================================================================

 reference point for electrostatic moments:    0.00000   0.00000   0.00000

 
              nuc           elec       ->  total
 ------------------------------------------------------------------------------
                          charge      
 ------------------------------------------------------------------------------
          42.000000     -42.000000       0.000000
 
 ------------------------------------------------------------------------------
                       dipole moment  
 ------------------------------------------------------------------------------
   x      -9.408737       9.406168      -0.002568
   y       0.460778      -0.460915      -0.000137
   z      -1.527070       1.516802      -0.010268
 
   | dipole moment | =     0.0106 a.u. =     0.0269 debye 
 
 ------------------------------------------------------------------------------
                     quadrupole moment
 ------------------------------------------------------------------------------
  xx     190.631681    -214.542024     -23.910343
  yy     190.382210    -214.240616     -23.858406
  zz       2.106051     -31.315474     -29.209423
  xy      -0.011149       0.015527       0.004379
  xz      19.977135     -19.408649       0.568486
  yz      -0.973758       0.946055      -0.027703
 
     1/3  trace=     -25.659391
     anisotropy=       5.415722
 
 ==============================================================================
 


    ------------------------------------------------------------------------
         total  cpu-time : 21 minutes and 36 seconds
         total wall-time :  3 minutes and 18 seconds
    ------------------------------------------------------------------------

   ****  ridft : all done  ****


    2018-04-28 21:04:31.670 

