 operating system is UNIX !

 ridft (c-9-414.gp.local) : TURBOMOLE V7.2 ( 21454 ) 4 Oct 2017 at 12:48:15
 Copyright (C) 2017 TURBOMOLE GmbH, Karlsruhe


    2018-05-18 15:36:12.866 



                                  r i d f t

                        DFT program with RI approximation 
                                for coulomb part 




                                                 
                                 References:     
                                                 
          TURBOMOLE:                             
              R. Ahlrichs, M. Baer, M. Haeser, H. Horn, and
              C. Koelmel
              Electronic structure calculations on workstation
              computers: the program system TURBOMOLE
              Chem. Phys. Lett. 162: 165 (1989)
          Density Functional:                              
              O. Treutler and R. Ahlrichs                      
              Efficient Molecular Numerical Integration Schemes
              J. Chem. Phys. 102: 346 (1995)                   
          Parallel Version:                                
              Performance of parallel TURBOMOLE for Density    
              Functional Calculations                          
              M. v. Arnim and R. Ahlrichs                      
              J. Comp. Chem. 19: 1746 (1998)                   
          RI-J Method:                                     
              Auxiliary Basis Sets to approximate Coulomb      
              Potentials                                       
              Chem. Phys. Lett. 240: 283 (1995)                
              K. Eichkorn, O. Treutler, H. Oehm, M. Haeser     
              and R. Ahlrichs                                  
              Chem. Phys. Lett. 242: 652 (1995)                
                                                           
              Auxiliary Basis Sets for Main Row Atoms and their
              Use to approximate Coulomb Potentials            
              K. Eichkorn, F. Weigend, O. Treutler and         
              R. Ahlrichs                                      
              Theo. Chem. Acc. 97: 119 (1997)                   
                                                           
              Accurate Coulomb-fitting basis sets for H to Rn 
              F. Weigend                                        
              Phys. Chem. Chem. Phys. 8: 1057 (2006)            
                                                           
          Multipole accelerated RI-J (MARI-J):             
              Fast evaluation of the Coulomb potential for     
              electron densities using multipole accelerated   
              resolution of identity approximation             
              M. Sierka, A. Hogekamp and R. Ahlrichs           
              J. Chem. Phys. 118: 9136 (2003)                  
          RI-JK Method:                                     
              A fully direct RI-HF algorithm: Implementation,
              optimised auxiliary basis sets, demonstration of
              accuracy and efficiency                         
              F. Weigend                                      
              Phys. Chem. Chem. Phys. 4: 4285 (2002)           
          Two-component HF and DFT with spin-orbit coupling:  
              Self-consistent treatment of spin-orbit         
              interactions with efficient Hartree-Fock and    
              density functional methods                      
              M. K. Armbruster, F. Weigend, C. van Wüllen and 
              W. Klopper                                      
              Phys. Chem. Chem. Phys. 10: 1748 (2008)         
          Relativistic all-electron 2c calculations           
              An efficient implementation of two-component    
              relativistic exact-decoupling methods for large 
              molecules                                       
              D. Peng, N. Middendorf, F. Weigend, M. Reiher   
              J. Chem. Phys. 138, 184105 (2013)               
                                         




              +--------------------------------------------------+
              |      general information about current run       |
              +--------------------------------------------------+

 
 PBE functional
 exchange:    LDA + PBE
 correlation: LDA (PW) + PBE
 A DFT calculation using the RI-J approximation will be carried out.
 Allocatable memory for RI due to $ricore (MB):                   500


              +--------------------------------------------------+
              | Atomic coordinate, charge and isotop information |
              +--------------------------------------------------+

                    atomic coordinates            atom    charge  isotop
          3.85839541   -4.44406511    1.29710351    c      6.000     0
          4.91328741   -6.16372200    0.90799378    h      1.000     0
          2.10342214   -4.45640398    0.23068302    h      1.000     0
          3.36854263   -4.39975727    3.29443254    h      1.000     0
          5.30901711   -2.07356990    0.66170816    c      6.000     0
          4.27876367    0.00784402    0.55404594    o      8.000     0
          7.81622678   -2.39258168    0.25778303    n      7.000     0
          8.52737097   -4.14482211    0.40283336    h      1.000     0
          9.49286396   -0.30166402   -0.28825056    c      6.000     0
          8.33220857    1.38172250   -0.43909552    h      1.000     0
         10.86747825   -0.03811198    1.21862330    h      1.000     0
         10.48495184   -0.60398567   -2.06297238    h      1.000     0
 
       center of nuclear mass  :    6.17075120   -1.83139207    0.49416644
       center of nuclear charge:    6.23756544   -1.90065486    0.49531784

              +--------------------------------------------------+
              |               basis set information              |
              +--------------------------------------------------+

              we will work with the 1s 3p 5d 7f 9g ... basis set
              ...i.e. with spherical basis functions...

   type   atoms  prim   cont   basis
   ---------------------------------------------------------------------------
    c        3     77     57   def2-QZVP   [7s4p3d2f1g|15s8p3d2f1g]
    h        7     33     30   def2-QZVP   [4s3p2d1f|7s3p2d1f]
    o        1     77     57   def2-QZVP   [7s4p3d2f1g|15s8p3d2f1g]
    n        1     77     57   def2-QZVP   [7s4p3d2f1g|15s8p3d2f1g]
   ---------------------------------------------------------------------------
   total:   12    616    495
   ---------------------------------------------------------------------------

   total number of primitive shells          :  100
   total number of contracted shells         :  155
   total number of cartesian basis functions :  605
   total number of SCF-basis functions       :  495


 integral neglect threshold       :  0.55E-13
 integral storage threshold THIZE :  0.10E-04
 integral storage threshold THIME :         5

 RI-J AUXILIARY BASIS SET information:

              we will work with the 1s 3p 5d 7f 9g ... basis set
              ...i.e. with spherical basis functions...

   type   atoms  prim   cont   basis
   ---------------------------------------------------------------------------
    c        3     70     49   def2-QZVP   [6s4p3d1f1g|12s5p4d2f1g]
    h        7     16     11   def2-QZVP   [3s1p1d|5s2p1d]
    o        1     70     49   def2-QZVP   [6s4p3d1f1g|12s5p4d2f1g]
    n        1     70     49   def2-QZVP   [6s4p3d1f1g|12s5p4d2f1g]
   ---------------------------------------------------------------------------
   total:   12    462    322
   ---------------------------------------------------------------------------

   total number of primitive shells          :   80
   total number of contracted shells         :  110
   total number of cartesian basis functions :  389
   total number of SCF-basis functions       :  322


 symmetry group of the molecule :   c1 

 the group has the following generators :
   c1(z)

    1 symmetry operations found

 there are 1 real representations :   a   

 maximum number of shells which are related by symmetry :  1


    mo occupation :
   irrep   mo's   occupied
    a      495       20
 
 number of basis functions   :                    495
 number of occupied orbitals :                     20
 
  
           ------------------
           density functional
           ------------------
 PBE functional
 exchange:    LDA + PBE
 correlation: LDA (PW) + PBE

 iterations will be done with small grid
  
 spherical integration : Lebedev's spherical grid
 spherical gridsize    :                     5
    i.e. gridpoints    :                   590
 value for diffuse not defined
 radial integration    : Chebyshev 2nd kind (scaling 3)
 radial gridsize       :                     8
 integration cells     :                    12
 partition function    : becke
 partition sharpness   :                     3
  

 biggest AO integral is expected to be     6.990327543
  
           ------------------------
               RI-J - INFORMATION
           ------------------------
 Contributions to RI integral batches: 
  neglected integral batches:                  1550
  direct contribution:                            0
  memory contribution:                 10540
 Memory core needed for (P|Q) and Cholesky      1 MByte
 Memory core minimum needed except of (P|Q)     2 MByte
 Total minimum memory core needed (sum)         3 MByte
  
 ****************************************
 Memory allocated for RI-J   483 MByte
 ****************************************
                                            

          ------------------------
          nuclear repulsion energy  :   180.543279235    
          ------------------------


         -----------------
         -S,T+V- integrals
         -----------------

 1e-integrals will be neglected if expon. factor < 0.552390E-14
 
   Difference densities algorithm switched on.
   The maximal number of linear combinations of
   difference densities is                    20 .

 DIIS switched on: error vector is FDS-SDF
 Max. Iterations for DIIS is     :   4
 DIIS matrix (see manual) 
    Scaling factor of diagonals  :  1.200
    threshold for scaling factor :  0.000

 scf convergence criterion : increment of total energy < .1000000D-08
                  and increment of one-electron energy < .1000000D-05

  MOs are in ASCII format !


 automatic virtual orbital shift switched on 
      shift if e(lumo)-e(homo) < 0.10000000    


 reading orbital data $scfmo  from file mos
 orbital characterization : expanded
 mo provided and orthogonalized by Cholesky decomposition

 DSCF restart information will be dumped onto file mos


 Starting SCF iterations

          Overall gridpoints after grid construction =         56052

 ITERATION  ENERGY          1e-ENERGY        2e-ENERGY     NORM[dD(SAO)]  TOL
   1  -247.19562873248    -688.47403496     260.73512699    0.000D+00 0.551D-13
                            Exc = -33.6852459305     Coul =  294.420372925    
                              N = 40.000001470    
                            current damping = 0.700
 
          max. resid. norm for Fia-block=  8.030D-01 for orbital      6a         
          max. resid. fock norm         =  6.249D+01 for orbital    420a         

 ITERATION  ENERGY          1e-ENERGY        2e-ENERGY     NORM[dD(SAO)]  TOL
   2  -248.15237989020    -692.23173789     263.53607877    0.119D+01 0.414D-13
                            Exc = -33.8525661586     Coul =  297.388644925    
                              N = 40.000000825    
                            current damping = 0.650
 
          Norm of current diis error:  2.6851    
          max. resid. norm for Fia-block=  1.604D-01 for orbital      1a         
          max. resid. fock norm         =  3.343D-01 for orbital    431a         

 ITERATION  ENERGY          1e-ENERGY        2e-ENERGY     NORM[dD(SAO)]  TOL
   3  -248.28712465219    -693.73166517     264.90126129    0.520D+00 0.299D-13
                            Exc = -34.0660219747     Coul =  298.967283261    
                              N = 40.000001366    
                            current damping = 0.550
 
          Norm of current diis error:  1.2841    
          max. resid. norm for Fia-block=  6.456D-02 for orbital      1a         
          max. resid. fock norm         =  6.845D-02 for orbital      1a         

 ITERATION  ENERGY          1e-ENERGY        2e-ENERGY     NORM[dD(SAO)]  TOL
   4  -248.32883573994    -693.64720154     264.77508657    0.285D+00 0.241D-13
                            Exc = -34.0393067519     Coul =  298.814393318    
                              N = 40.000000111    
                            current damping = 0.600
 
          Norm of current diis error: 0.57210    
          max. resid. norm for Fia-block=  3.277D-02 for orbital      6a         
          max. resid. fock norm         =  6.764D-02 for orbital    261a         

 ITERATION  ENERGY          1e-ENERGY        2e-ENERGY     NORM[dD(SAO)]  TOL
   5  -248.33553506763    -694.18485834     265.30604404    0.119D+00 0.221D-13
                            Exc = -34.1243186722     Coul =  299.430362707    
                              N = 40.000000816    
                            current damping = 0.650
 
          Norm of current diis error: 0.32325    
          max. resid. norm for Fia-block=  1.029D-02 for orbital     20a         
          max. resid. fock norm         =  1.170D-02 for orbital    457a         
          mo-orthogonalization: Cholesky decomposition

 ITERATION  ENERGY          1e-ENERGY        2e-ENERGY     NORM[dD(SAO)]  TOL
   6  -248.33857815001    -694.22124214     265.33938475    0.403D-01 0.208D-13
                            Exc = -34.1235526313     Coul =  299.462937383    
                              N = 40.000000273    
                            current damping = 0.500
 
          Norm of current diis error: 0.89852E-01
          max. resid. norm for Fia-block=  4.411D-03 for orbital     19a         
          max. resid. fock norm         =  5.992D-03 for orbital    472a         

 ITERATION  ENERGY          1e-ENERGY        2e-ENERGY     NORM[dD(SAO)]  TOL
   7  -248.33880714460    -694.12381982     265.24173344    0.163D-01 0.199D-13
                            Exc = -34.1134473475     Coul =  299.355180792    
                              N = 40.000000074    
                            current damping = 0.550
 
          Norm of current diis error: 0.47458E-01
          max. resid. norm for Fia-block=  1.702D-03 for orbital      6a         
          max. resid. fock norm         =  2.812D-03 for orbital    430a         

 ITERATION  ENERGY          1e-ENERGY        2e-ENERGY     NORM[dD(SAO)]  TOL
   8  -248.33885750948    -694.16624290     265.28410615    0.241D-02 0.195D-13
                            Exc = -34.1187185827     Coul =  299.402824733    
                              N = 40.000000056    
                            current damping = 0.600
 
          Norm of current diis error: 0.10051E-01
          max. resid. norm for Fia-block=  6.438D-04 for orbital      6a         
          max. resid. fock norm         =  1.095D-03 for orbital    482a         

 ITERATION  ENERGY          1e-ENERGY        2e-ENERGY     NORM[dD(SAO)]  TOL
   9  -248.33886002041    -694.18162940     265.29949014    0.862D-03 0.192D-13
                            Exc = -34.1206151098     Coul =  299.420105254    
                              N = 40.000000067    
                            current damping = 0.450
 
          Norm of current diis error: 0.47764E-02
          max. resid. norm for Fia-block=  2.770D-04 for orbital     20a         
          max. resid. fock norm         =  2.841D-04 for orbital     20a         

 ITERATION  ENERGY          1e-ENERGY        2e-ENERGY     NORM[dD(SAO)]  TOL
  10  -248.33886035733    -694.17829148     265.29615188    0.275D-03 0.191D-13
                            Exc = -34.1201341262     Coul =  299.416286009    
                              N = 40.000000045    
                            current damping = 0.500
 
          Norm of current diis error: 0.40934E-02
          max. resid. norm for Fia-block=  1.445D-04 for orbital     19a         
          max. resid. fock norm         =  2.469D-04 for orbital    472a         
          mo-orthogonalization: Cholesky decomposition

 ITERATION  ENERGY          1e-ENERGY        2e-ENERGY     NORM[dD(SAO)]  TOL
  11  -248.33886079357    -694.17732353     265.29518350    0.984D-04 0.189D-13
                            Exc = -34.1201891091     Coul =  299.415372612    
                              N = 40.000000048    
                            current damping = 0.350
 
          Norm of current diis error: 0.11717E-02
          max. resid. norm for Fia-block=  4.026D-05 for orbital     11a         
          max. resid. fock norm         =  6.965D-05 for orbital     17a         

 ITERATION  ENERGY          1e-ENERGY        2e-ENERGY     NORM[dD(SAO)]  TOL
  12  -248.33886082326    -694.17946958     265.29732952    0.718D-04 0.188D-13
                            Exc = -34.1204035448     Coul =  299.417733063    
                              N = 40.000000049    
                            current damping = 0.400
 
          Norm of current diis error: 0.33271E-03
          max. resid. norm for Fia-block=  1.189D-05 for orbital     11a         
          max. resid. fock norm         =  1.619D-05 for orbital    487a         

 ITERATION  ENERGY          1e-ENERGY        2e-ENERGY     NORM[dD(SAO)]  TOL
  13  -248.33886082553    -694.17954920     265.29740914    0.166D-04 0.187D-13
                            Exc = -34.1204090222     Coul =  299.417818162    
                              N = 40.000000049    
                            current damping = 0.250
 
          Norm of current diis error: 0.12857E-03
          max. resid. norm for Fia-block=  4.335D-06 for orbital     20a         
          max. resid. fock norm         =  5.093D-06 for orbital     63a         

 ITERATION  ENERGY          1e-ENERGY        2e-ENERGY     NORM[dD(SAO)]  TOL
  14  -248.33886082584    -694.17925129     265.29711123    0.304D-05 0.186D-13
                            Exc = -34.1203829039     Coul =  299.417494133    
                              N = 40.000000049    
                            current damping = 0.300
 
          Norm of current diis error: 0.47774E-04
          max. resid. norm for Fia-block=  1.973D-06 for orbital     19a         
          max. resid. fock norm         =  3.129D-06 for orbital    460a         

 ITERATION  ENERGY          1e-ENERGY        2e-ENERGY     NORM[dD(SAO)]  TOL
  15  -248.33886082588    -694.17931933     265.29717927    0.143D-05 0.186D-13
                            Exc = -34.1203899679     Coul =  299.417569239    
                              N = 40.000000049    
                            current damping = 0.350
 
          Norm of current diis error: 0.32893E-04
          max. resid. norm for Fia-block=  1.112D-06 for orbital     19a         
          max. resid. fock norm         =  1.607D-06 for orbital    472a         
          mo-orthogonalization: Cholesky decomposition

 ITERATION  ENERGY          1e-ENERGY        2e-ENERGY     NORM[dD(SAO)]  TOL
  16  -248.33886082591    -694.17934289     265.29720283    0.148D-06 0.184D-13
                            Exc = -34.1203909157     Coul =  299.417593746    
                              N = 40.000000049    
                            current damping = 0.200
 
          Norm of current diis error: 0.97776E-05
          max. resid. norm for Fia-block=  3.127D-07 for orbital     20a         
          max. resid. fock norm         =  4.205D-07 for orbital    430a         

 ITERATION  ENERGY          1e-ENERGY        2e-ENERGY     NORM[dD(SAO)]  TOL
  17  -248.33886082591    -694.17933388     265.29719382    0.777D-07 0.180D-13
                            Exc = -34.1203908518     Coul =  299.417584674    
                              N = 40.000000049    
                            current damping = 0.250
 
          Norm of current diis error: 0.57656E-05
          max. resid. norm for Fia-block=  1.508D-07 for orbital     20a         
          max. resid. fock norm         =  1.858D-07 for orbital    482a         

 ITERATION  ENERGY          1e-ENERGY        2e-ENERGY     NORM[dD(SAO)]  TOL
  18  -248.33886082590    -694.17932980     265.29718974    0.472D-07 0.180D-13
                            Exc = -34.1203901920     Coul =  299.417579935    
                              N = 40.000000049    
                            current damping = 0.100
 
          Norm of current diis error: 0.15451E-05
          max. resid. norm for Fia-block=  3.999D-08 for orbital     19a         
          max. resid. fock norm         =  5.464D-08 for orbital    472a         

 ENERGY CONVERGED !

          Overall gridpoints after grid construction =        184305

 ITERATION  ENERGY          1e-ENERGY        2e-ENERGY     NORM[dD(SAO)]  TOL
  19  -248.33886664120    -694.17933059     265.29718471    0.115D-07 0.180D-13
                            Exc = -34.1203960610     Coul =  299.417580773    
                              N = 40.000000846    
                            current damping = 0.150
 
          Norm of current diis error: 0.65193E-06
          max. resid. norm for Fia-block=  2.113D-08 for orbital     20a         
          max. resid. fock norm         =  3.733D-08 for orbital    493a         

 End of SCF iterations

   convergence criteria satisfied after    19 iterations


                  ------------------------------------------ 
                 |  total energy      =   -248.33886664120  |
                  ------------------------------------------ 
                 :  kinetic energy    =    247.38967952035  :
                 :  potential energy  =   -495.72854616155  :
                 :  virial theorem    =      1.99617785515  :
                 :  wavefunction norm =      1.00000000000  :
                  .......................................... 


 <geterg> : there is no data group $energy 


 <skperg> : $end is missing 


 orbitals $scfmo  will be written to file mos

    irrep                 16a         17a         18a         19a         20a   
 eigenvalues H         -0.35285    -0.34081    -0.31223    -0.22235    -0.20560
            eV          -9.6016     -9.2740     -8.4963     -6.0506     -5.5947
 occupation              2.0000      2.0000      2.0000      2.0000      2.0000 

    irrep                 21a         22a         23a         24a         25a   
 eigenvalues H         -0.01357    -0.01153     0.02022     0.03509     0.06042
            eV          -0.3692     -0.3139      0.5502      0.9548      1.6442
 
 
 
 
 ==============================================================================
                           electrostatic moments
 ==============================================================================

 reference point for electrostatic moments:    0.00000   0.00000   0.00000

 
              nuc           elec       ->  total
 ------------------------------------------------------------------------------
                          charge      
 ------------------------------------------------------------------------------
          40.000000     -40.000000      -0.000000
 
 ------------------------------------------------------------------------------
                       dipole moment  
 ------------------------------------------------------------------------------
   x     249.502618    -248.503246       0.999372
   y     -76.026194      74.920647      -1.105548
   z      19.812713     -19.805892       0.006822
 
   | dipole moment | =     1.4903 a.u. =     3.7880 debye 
 
 ------------------------------------------------------------------------------
                     quadrupole moment
 ------------------------------------------------------------------------------
  xx    1783.330331   -1793.182058      -9.851727
  yy     281.577898    -300.669639     -19.091741
  zz      33.968372     -57.081802     -23.113430
  xy    -401.810813     395.353496      -6.457318
  xz      75.191461     -75.164335       0.027127
  yz     -68.776096      67.769347      -1.006750
 
     1/3  trace=     -17.352299
     anisotropy=      16.335421
 
 ==============================================================================
 


    ------------------------------------------------------------------------
         total  cpu-time :  1 minutes and 22 seconds
         total wall-time :  4 minutes and 10 seconds
    ------------------------------------------------------------------------

   ****  ridft : all done  ****


    2018-05-18 15:40:22.886 

