 operating system is UNIX !
 hostname is         c-8-40.local

 ridft (c-8-40.local) : TURBOMOLE V7.0.2( ) 8 Jan 2016 at 10:54:38
 Copyright (C) 2016 TURBOMOLE GmbH, Karlsruhe


    2018-02-05 11:44:29.717 



                                  r i d f t

                        DFT program with RI approximation 
                                for coulomb part 




                                                 
                                 References:     
                                                 
          TURBOMOLE:                             
              R. Ahlrichs, M. Baer, M. Haeser, H. Horn, and
              C. Koelmel
              Electronic structure calculations on workstation
              computers: the program system TURBOMOLE
              Chem. Phys. Lett. 162: 165 (1989)
          Density Functional:                              
              O. Treutler and R. Ahlrichs                      
              Efficient Molecular Numerical Integration Schemes
              J. Chem. Phys. 102: 346 (1995)                   
          Parallel Version:                                
              Performance of parallel TURBOMOLE for Density    
              Functional Calculations                          
              M. v. Arnim and R. Ahlrichs                      
              J. Comp. Chem. 19: 1746 (1998)                   
          RI-J Method:                                     
              Auxiliary Basis Sets to approximate Coulomb      
              Potentials                                       
              Chem. Phys. Lett. 240: 283 (1995)                
              K. Eichkorn, O. Treutler, H. Oehm, M. Haeser     
              and R. Ahlrichs                                  
              Chem. Phys. Lett. 242: 652 (1995)                
                                                           
              Auxiliary Basis Sets for Main Row Atoms and their
              Use to approximate Coulomb Potentials            
              K. Eichkorn, F. Weigend, O. Treutler and         
              R. Ahlrichs                                      
              Theo. Chem. Acc. 97: 119 (1997)                   
                                                           
              Accurate Coulomb-fitting basis sets for H to Rn 
              F. Weigend                                        
              Phys. Chem. Chem. Phys. 8: 1057 (2006)            
                                                           
          Multipole accelerated RI-J (MARI-J):             
              Fast evaluation of the Coulomb potential for     
              electron densities using multipole accelerated   
              resolution of identity approximation             
              M. Sierka, A. Hogekamp and R. Ahlrichs           
              J. Chem. Phys. 118: 9136 (2003)                  
          RI-JK Method:                                     
              A fully direct RI-HF algorithm: Implementation,
              optimised auxiliary basis sets, demonstration of
              accuracy and efficiency                         
              F. Weigend                                      
              Phys. Chem. Chem. Phys. 4: 4285 (2002)           
          Two-component HF and DFT with spin-orbit coupling:  
              Self-consistent treatment of spin-orbit         
              interactions with efficient Hartree-Fock and    
              density functional methods                      
              M. K. Armbruster, F. Weigend, C. van Wüllen and 
              W. Klopper                                      
              Phys. Chem. Chem. Phys. 10: 1748 (2008)         
          Relativistic all-electron 2c calculations           
              An efficient implementation of two-component    
              relativistic exact-decoupling methods for large 
              molecules                                       
              D. Peng, N. Middendorf, F. Weigend, M. Reiher   
              J. Chem. Phys. 138, 184105 (2013)               
                                         


 


              +--------------------------------------------------+
              |      general information about current run       |
              +--------------------------------------------------+

 

 DENSITY CONVERGENCE CHECK SWITCHED ON !
 SCF CONVERGENCE IF RMS(delta[D]) <     0.1000000000E-06

 A HF calculation using the RI-JK approximation will be carried out.
 Allocatable memory for RI due to $ricore (MB):        5000


              +--------------------------------------------------+
              | Atomic coordinate, charge and isotop information |
              +--------------------------------------------------+

                    atomic coordinates            atom    charge  isotop
         -5.66350922    4.31235504   -2.49632822    c      6.000     0
         -9.61114711    3.98543241   -0.17007535    c      6.000     0
         -8.35258951    4.12149270    2.06169121    c      6.000     0
         -5.64650169    4.31424476    1.95208710    c      6.000     0
          2.20908985    4.48809957    1.92374120    c      6.000     0
          2.21853848    4.55990916   -2.76466933    c      6.000     0
          5.90728389    4.46920230   -0.76722881    c      6.000     0
          4.89061123    4.48620984    1.67807681    c      6.000     0
          8.87793337    4.32180367    2.18641314    c      6.000     0
         -8.32046416    4.09314680   -2.39239328    n      7.000     0
         -4.40306189    4.42573860   -0.26456166    n      7.000     0
         -4.26511188    4.38605435    4.06858036    n      7.000     0
          1.01478293    4.53723245   -0.45731372    n      7.000     0
          4.72053588    4.51266601   -3.01789263    n      7.000     0
          6.77844764    4.39550299    3.49410362    n      7.000     0
          8.47920116    4.38416463   -0.40440139    n      7.000     0
          0.74833155    4.66951327   -4.84903726    n      7.000     0
         -4.63738793    4.36715709   -4.60337286    o      8.000     0
          0.91084800    4.42195915    3.89094611    o      8.000     0
         -9.20485599    3.85315158   -4.07424954    h      1.000     0
        -11.64071298    3.75488583   -0.29857673    h      1.000     0
         -9.35414436    4.00243995    3.83992350    h      1.000     0
         -5.11926809    4.10259543    5.75232635    h      1.000     0
         -2.29034807    4.40495162    3.99110159    h      1.000     0
         -0.96187060    4.51644546   -0.41951920    h      1.000     0
         10.76199033    4.20275092    2.96498030    h      1.000     0
          9.78689164    4.18385366   -1.78579120    h      1.000     0
          1.64406174    4.40306189   -6.51388598    h      1.000     0
         -1.19052746    4.50321737   -4.77911739    h      1.000     0
 
       center of nuclear mass  :   -0.27785748    4.37747530   -0.08768371
       center of nuclear charge:   -0.33186926    4.37074201   -0.08941462

              +--------------------------------------------------+
              |               basis set information              |
              +--------------------------------------------------+

              we will work with the 1s 3p 5d 7f 9g ... basis set
              ...i.e. with spherical basis functions...

   type   atoms  prim   cont   basis
   ---------------------------------------------------------------------------
    c        9     77     57   def2-QZVP   [7s4p3d2f1g|15s8p3d2f1g]
    n        8     77     57   def2-QZVP   [7s4p3d2f1g|15s8p3d2f1g]
    o        2     77     57   def2-QZVP   [7s4p3d2f1g|15s8p3d2f1g]
    h       10     33     30   def2-QZVP   [4s3p2d1f|7s3p2d1f]
   ---------------------------------------------------------------------------
   total:   29   1793   1383
   ---------------------------------------------------------------------------

   total number of primitive shells          :  100
   total number of contracted shells         :  423
   total number of cartesian basis functions : 1718
   total number of SCF-basis functions       : 1383


 integral neglect threshold       :  0.19E-13
 integral storage threshold THIZE :  0.10E-04
 integral storage threshold THIME :         5

 RI-JK AUXILIARY BASIS SET information:

              we will work with the 1s 3p 5d 7f 9g ... basis set
              ...i.e. with spherical basis functions...

   type   atoms  prim   cont   basis
   ---------------------------------------------------------------------------
    c        9     97     75   def2-QZVP   [10s8p5d1f1g|14s10p6d2f1g]
    n        8     97     77   def2-QZVP   [10s8p4d2f1g|14s10p6d2f1g]
    o        2     97     77   def2-QZVP   [10s8p4d2f1g|14s10p6d2f1g]
    h       10     20     18   def2-QZVP   [2s2p2d|4s2p2d]
   ---------------------------------------------------------------------------
   total:   29   2043   1625
   ---------------------------------------------------------------------------

   total number of primitive shells          :  107
   total number of contracted shells         :  535
   total number of cartesian basis functions : 1931
   total number of SCF-basis functions       : 1625


 symmetry group of the molecule :   c1 

 the group has the following generators :
   c1(z)

    1 symmetry operations found

 there are 1 real representations :   a   

 maximum number of shells which are related by symmetry :  1


    mo occupation :
   irrep   mo's   occupied
    a     1383       68
 
 number of basis functions   :         1383
 number of occupied orbitals :           68
 

 biggest AO integral is expected to be     6.990327543
  
           ------------------------
               RI-JK - INFORMATION
           ------------------------
 Contributions to RI integral batches: 
  neglected integral batches:       38054
  direct contribution:              51622
  memory contribution:           0
 Memory core needed for (P|Q) and Cholesky     21 MByte
 Memory core minimum needed except of (P|Q)     1 MByte
 Total minimum memory core needed (sum)        22 MByte
  
 ****************************************
 Memory allocated for RI-J    22 MByte
 ****************************************
                                            
 total memory allocated for calculation of  (Q|P)**(-1/2) :   31 MiB

  forming (P|Q)**(-1/2) 
 eigenvalues of original matrix 
 smallest =0.3706376575673E-07  largest = 52.48697747514    
  The symmetry information takes            1  MB

          ------------------------
          nuclear repulsion energy  :   1391.39465390    
          ------------------------

 
          -----------------
          -S,T+V- integrals
          -----------------

 1e-integrals will be neglected if expon. factor < 0.194526E-14
 
   Difference densities algorithm switched on.
   The maximal number of linear combinations of
   difference densities is          20 .

 automatic virtual orbital shift switched on 
      shift if e(lumo)-e(homo) < 0.10000000    


 DIIS switched on: error vector is FDS-SDF
 Max. Iterations for DIIS is     :   5
 DIIS matrix (see manual) 
    Scaling factor of diagonals  :  1.200
    threshold for scaling factor :  0.000

 scf convergence criterion : increment of total energy < .1000000D-08
                  and increment of one-electron energy < .1000000D-05

  MOs are in ASCII format !


 reading orbital data $scfmo  from file mos . 

 orbital characterization : scfconv=9
 

 DSCF restart information will be dumped onto file mos


 Starting SCF iterations

 
 BLOCKING OF MOS FOR RI-K
 
 
 occupied MOs partitioned into blocks of maximum length 68
 this requires 1451 MiB core memory.
 
            MULTIPLE PASS Statistics 
 ----------------------------------------------------
  pass       irrep     lambda      batch : MO  to  MO
 ----------------------------------------------------
   1       1  ->  1    1  -> 68             1  ->  68



 ENERGY & DENSITY CONVERGED !


 ITERATION  ENERGY          1e-ENERGY        2e-ENERGY     RMS[dD(SAO)]   TOL
   1  -932.26225943717    -4040.7959155     1717.1390022    0.000D+00 0.194D-13
                           RI-K = -119.638778736     Coul =  1836.77778093    
                            current damping = 0.700
 
          max. resid. norm for Fia-block=  1.172D-01 for orbital      2a         
          max. resid. fock norm         =  6.817D-01 for orbital   1364a         

 End of SCF iterations

   convergence criteria satisfied after    1 iterations


                  ------------------------------------------ 
                 |  total energy      =   -932.26225943717  |
                  ------------------------------------------ 
                 :  kinetic energy    =    934.14566473694  :
                 :  potential energy  =  -1866.40792417411  :
                 :  virial theorem    =      2.00202025265  :
                 :  wavefunction norm =      1.00000000000  :
                  .......................................... 


 orbitals $scfmo  will be written to file mos

    irrep                 64a         65a         66a         67a         68a   
 eigenvalues H         -0.35542    -0.38012    -0.41819    -0.40275    -0.26349
            eV          -9.6716    -10.3438    -11.3797    -10.9594     -7.1699
 occupation              2.0000      2.0000      2.0000      2.0000      2.0000 

    irrep                 69a         70a         71a         72a         73a   
 eigenvalues H          0.09477     0.15351     0.15256     0.09647     0.17285
            eV           2.5787      4.1773      4.1513      2.6251      4.7035
 
 
 
 
 ==============================================================================
                           electrostatic moments
 ==============================================================================

 reference point for electrostatic moments:    0.00000   0.00000   0.00000

 
              nuc           elec       ->  total
 ------------------------------------------------------------------------------
                          charge      
 ------------------------------------------------------------------------------
         136.000000    -136.000000      -0.000000
 
 ------------------------------------------------------------------------------
                       dipole moment  
 ------------------------------------------------------------------------------
   x     -45.134219      42.888771      -2.245448
   y     594.420914    -594.880721      -0.459807
   z     -12.160388      11.522640      -0.637748
 
   | dipole moment | =     2.3791 a.u. =     6.0471 debye 
 
 ------------------------------------------------------------------------------
                     quadrupole moment
 ------------------------------------------------------------------------------
  xx    4715.389336   -4755.180305     -39.790969
  yy    2602.321096   -2689.553885     -87.232789
  zz    1124.472526   -1208.008963     -83.536437
  xy    -113.594073     105.220444      -8.373630
  xz     267.249116    -276.788554      -9.539438
  yz     -65.335231      63.129127      -2.206105
 
     1/3  trace=     -70.186732
     anisotropy=      50.862402
 
 ==============================================================================
 
 


    ------------------------------------------------------------------------
         total  cpu-time :  4 minutes and 40 seconds
         total wall-time :  4 minutes and 40 seconds
    ------------------------------------------------------------------------


   ****  ridft : all done  ****


    2018-02-05 11:49:09.745 

