
 eiger (gplogin1.local) : TURBOMOLE V7.2 ( 21285 ) 30 Jun 2017 at 11:51:10
 Copyright (C) 2017 TURBOMOLE GmbH, Karlsruhe


    2017-11-03 13:11:23.661 

                                                                                
  
Total energy =   -630.2775172536 H =    -17150.7336330 eV
 
 HOMO-LUMO Separation
   HOMO:    28.    28 a     -0.18856131 H =     -5.13102 eV
   LUMO:    29.    29 a     -0.00348017 H =     -0.09470 eV
   Gap :                    +0.18508113 H =     +5.03632 eV
 
Number of MOs=    296, Electrons=     56.00, Symmetry: c1   
 
   Nr.   Orbital    Occupation       Energy
   45.    45 a                     +0.241465 H =        +6.571 eV
   44.    44 a                     +0.239943 H =        +6.529 eV
   43.    43 a                     +0.219813 H =        +5.981 eV
   42.    42 a                     +0.167392 H =        +4.555 eV
   41.    41 a                     +0.161672 H =        +4.399 eV
   40.    40 a                     +0.138458 H =        +3.768 eV
   39.    39 a                     +0.113619 H =        +3.092 eV
   38.    38 a                     +0.093260 H =        +2.538 eV
   37.    37 a                     +0.089204 H =        +2.427 eV
   36.    36 a                     +0.083324 H =        +2.267 eV
   35.    35 a                     +0.077070 H =        +2.097 eV
   34.    34 a                     +0.066529 H =        +1.810 eV
   33.    33 a                     +0.043802 H =        +1.192 eV
   32.    32 a                     +0.041704 H =        +1.135 eV
   31.    31 a                     +0.030436 H =        +0.828 eV
   30.    30 a                     +0.020184 H =        +0.549 eV
   29.    29 a                     -0.003480 H =        -0.095 eV
   28.    28 a        2.000        -0.188561 H =        -5.131 eV
   27.    27 a        2.000        -0.224393 H =        -6.106 eV
   26.    26 a        2.000        -0.263313 H =        -7.165 eV
   25.    25 a        2.000        -0.300662 H =        -8.181 eV
   24.    24 a        2.000        -0.303645 H =        -8.263 eV
   23.    23 a        2.000        -0.330723 H =        -8.999 eV
   22.    22 a        2.000        -0.363898 H =        -9.902 eV
   21.    21 a        2.000        -0.379379 H =       -10.323 eV
   20.    20 a        2.000        -0.391508 H =       -10.653 eV
   19.    19 a        2.000        -0.416507 H =       -11.334 eV
   18.    18 a        2.000        -0.438163 H =       -11.923 eV
   17.    17 a        2.000        -0.441365 H =       -12.010 eV
   16.    16 a        2.000        -0.512251 H =       -13.939 eV
   15.    15 a        2.000        -0.588416 H =       -16.012 eV
   14.    14 a        2.000        -0.592880 H =       -16.133 eV
   13.    13 a        2.000        -0.707739 H =       -19.259 eV


    ------------------------------------------------------------------------
         total  cpu-time :   0.08 seconds
         total wall-time :   0.15 seconds
    ------------------------------------------------------------------------

   ****  eiger : all done  ****


    2017-11-03 13:11:23.797 

