
   OpenMP run-time library returned nthreads =  8

 rirpa (c-16-19) : TURBOMOLE V7.3 ( 22142 ) 4 Jul 2018 at 18:12:42
 Copyright (C) 2018 TURBOMOLE GmbH, Karlsruhe


    2019-02-22 11:28:05.251 

 
 
    *************************************************************************
    *************************** PROGRAM RIRPA *******************************
    ******                                                             ******
    ******              H. Eshuis, J. E. Bates and F. Furche           ******
    ******                                                             ******
    ****** Nov 2011                                                    ******
    ****** Copyright TURBOMOLE GmbH                                    ******
    *************************************************************************
    
    
                                References:                                  
    
                   RIRPA:                                                    
                     H. Eshuis, J. Yarkony and F. Furche                     
                     Fast computation of molecular random phase              
                     approximation correlation energies using resolution     
                     of the identity imaginary frequency integration         
                     J. Chem. Phys. 132: 234114 (2010)                       
    
                     H. Eshuis, J. E. Bates and F. Furche                    
                     Electron correlation methods based on                   
                     the random phase approximation                          
                     Theor. Chem. Acc.  131: 1084 (2012)                     
    
                   TWO-COMPONENT RIRPA:                                      
                     M. Kuehn                                                
                     Correlation energies from the                           
                     two-component random-phase approximation                
                     J. Chem. Theory Comput. 10: 623 (2014)                  
    
                   RIRPA GRADIENTS:                                          
                     Asbjoern M. Burow, Jefferson E. Bates, Filipp Furche*,  
                     and Henk Eshuis                                         
                     Analytical First-Order Molecular Properties and Forces  
                     within the Adiabatic Connection Random Phase            
                     Approximation                                           
                     J. Chem. Theory Comput. 10: 180 (2014)                  
    
    
    
      ... OpenMP parallelization enabled, threads:    8

   *-----------------------------------------------------------------------*
   |                     program will use  8 thread(s)                     |
   *-----------------------------------------------------------------------*
 
                FOUND RI-J FLAG
 
  HF exact exchange energy will be computed using RI-JK.
 
  The HXX energy will NOT be computed due to nohxx option. 
 


              +--------------------------------------------------+
              | Atomic coordinate, charge and isotop information |
              +--------------------------------------------------+

                    atomic coordinates            atom    charge  isotop
         -3.54794406    3.26913394    0.00000000    c      6.000     0
          1.04499575   -4.70983313    0.00000000    c      6.000     0
         -2.72575688    7.24691791    0.00000000    c      6.000     0
          4.89750688   -5.99725688    0.00000000    c      6.000     0
         -5.38673981    7.02714176    0.00000000    c      6.000     0
          3.37066441   -8.18767082    0.00000000    c      6.000     0
         -5.86203274    4.42500034    0.00000000    n      7.000     0
          0.88191148   -7.29142139    0.00000000    n      7.000     0
         -3.31203195    0.63510525    0.00000000    n      7.000     0
         -1.11416405   -3.18256726    0.00000000    n      7.000     0
         -1.04918789   -0.60361236    0.00000000    c      6.000     0
          6.99524387  -10.79578234    0.00000000    c      6.000     0
         -5.82106142   11.47137485    0.00000000    c      6.000     0
         -3.17314352   11.72247429    0.00000000    c      6.000     0
          8.54263898   -8.63241083    0.00000000    c      6.000     0
          7.52817008   -6.20786701    0.00000000    c      6.000     0
         -1.58629995    9.62728862    0.00000000    c      6.000     0
         -6.98920670    9.11264205    0.00000000    c      6.000     0
          4.36888304  -10.62089999    0.00000000    c      6.000     0
          1.09609376    0.63187794    0.00000000    n      7.000     0
         -1.63006515    4.84204563    0.00000000    n      7.000     0
          3.36849507   -3.84176942    0.00000000    n      7.000     0
          0.96183124    2.58807143    0.00000000    h      1.000     0
          2.72079142   -0.46585828    0.00000000    h      1.000     0
         -2.81618184   -4.05068353    0.00000000    h      1.000     0
         -4.91757120   -0.40070721    0.00000000    h      1.000     0
         -7.58538356    3.59967887    0.00000000    h      1.000     0
         -0.69731842   -8.36710442    0.00000000    h      1.000     0
         -2.35486292   13.60269173    0.00000000    h      1.000     0
         10.57949694   -8.86947682    0.00000000    h      1.000     0
          7.86984698  -12.65042618    0.00000000    h      1.000     0
         -6.98538743   13.15929293    0.00000000    h      1.000     0
          8.72057845   -4.54063690    0.00000000    h      1.000     0
          0.45433697    9.82064699    0.00000000    h      1.000     0
          3.18446404  -12.29483008    0.00000000    h      1.000     0
         -9.03160987    8.92943031    0.00000000    h      1.000     0
 
       center of nuclear mass  :   -0.04874018   -0.02807757    0.00000000
       center of nuclear charge:   -0.04631992   -0.02668087    0.00000000
              +-------------------------------------------------+
              |        Rotational Constants Section             |
              +-------------------------------------------------+
                                   Center of Mass [a.u]:
              -0.04874018208066        -0.02807757424106         0.00000000000000
                     Principal Moments of Inertia [a.u.]
            1400.69563857262074     19613.81509935543727     21014.51073792805983
                       Rotational constants A,B,C [a.u.]
               0.00035696548646         0.00002549223583         0.00002379308309
                     Rotational constants A,B,C [cm**-1]
               0.04297842074942         0.00306924920988         0.00286467228513
                        Rotational constants A,B,C [MHz]
            1288.46063974267940        92.01377648448253        85.88071457227747

   * BASIS SET information:

              +--------------------------------------------------+
              |               basis set information              |
              +--------------------------------------------------+

              we will work with the 1s 3p 5d 7f 9g ... basis set
              ...i.e. with spherical basis functions...

   type   atoms  prim   cont   basis
   ---------------------------------------------------------------------------
    c       15     50     30   cc-pVTZ   [4s3p2d1f|18s5p2d1f]
    n        7     50     30   cc-pVTZ   [4s3p2d1f|18s5p2d1f]
    h       14     16     14   cc-pVTZ   [3s2p1d|5s2p1d]
   ---------------------------------------------------------------------------
   total:   36   1324    856
   ---------------------------------------------------------------------------

   total number of primitive shells          :   60
   total number of contracted shells         :  304
   total number of cartesian basis functions :  980
   total number of SCF-basis functions       :  856


   * AUXILIARY BASIS SET information:

              +--------------------------------------------------+
              |               basis set information              |
              +--------------------------------------------------+

              we will work with the 1s 3p 5d 7f 9g ... basis set
              ...i.e. with spherical basis functions...

   type   atoms  prim   cont   basis
   ---------------------------------------------------------------------------
    c       15     81     81   cc-pVTZ   [8s6p5d3f1g|8s6p5d3f1g]
    n        7     81     81   cc-pVTZ   [8s6p5d3f1g|8s6p5d3f1g]
    h       14     30     30   cc-pVTZ   [4s3p2d1f|4s3p2d1f]
   ---------------------------------------------------------------------------
   total:   36   2202   2202
   ---------------------------------------------------------------------------

   total number of primitive shells          :   56
   total number of contracted shells         :  646
   total number of cartesian basis functions : 2712
   total number of SCF-basis functions       : 2202


   * RI-JK AUXILIARY BASIS SET information:

              +--------------------------------------------------+
              |               basis set information              |
              +--------------------------------------------------+

              we will work with the 1s 3p 5d 7f 9g ... basis set
              ...i.e. with spherical basis functions...

   type   atoms  prim   cont   basis
   ---------------------------------------------------------------------------
    c       15     79     79   cc-pVTZ   [10s7p5d2f1g|10s7p5d2f1g]
    n        7     79     79   cc-pVTZ   [10s7p5d2f1g|10s7p5d2f1g]
    h       14     30     30   cc-pVTZ   [4s3p2d1f|4s3p2d1f]
   ---------------------------------------------------------------------------
   total:   36   2158   2158
   ---------------------------------------------------------------------------

   total number of primitive shells          :   60
   total number of contracted shells         :  690
   total number of cartesian basis functions : 2602
   total number of SCF-basis functions       : 2158

  No keyword $dft found! - HARTREE FOCK CALCULATION

 reading orbital data $scfmo  from file mos
 orbital characterization : scfconv=9

 integral neglect threshold       :  0.32E+02

 scfconv                     9

 MAXIMUM CORE MEMORY WHICH CAN BE ALLOCATED DYNAMICALLY = 80000 MiB
              ( or 10485760000 double words per process)


 there are 1 real representations :   a   

 maximum number of shells which are related by symmetry :  1

 time elapsed for calculating density matrices :   0.104 sec

     total memory allocated for calculation of (Q|P)**(-1/2) : 56 MiB


     calculation of (P|Q) ...
     time in lp2sym        cpu:  1.79 sec    wall:  0.22 sec    ratio:  8.0


     calculation of the Cholesky decomposition of (P|Q)**(-1) ...
     time in invmetri      cpu:  4.97 sec    wall:  0.78 sec    ratio:  6.4

   threshold for RMS(d[D]) in SCF was     :  0.10E-06
   integral neglect threshold             :  0.12E-13
   derivative integral neglect threshold  :  0.10E-06


 setting up bound for integral derivative estimation

 increment for numerical differentiation : 0.00050000
 total memory allocated for calculation of (Q|P)**(-1/2) : 56 MiB
 Dividing biap into                   3051  block chunks,
 using                    13 MiB per block
 Reserved                  39980 MiB for BLAS routines
 Estimated total memory usage:                  79998 MiB
 number of passes for ispin    1
 =    1
 
 Number of eigenvalues < 6e-3:                      0
 
 
            -----------------------------
            Complex frequency integration
            -----------------------------
 
 Number of Clenshaw-Curtis nodes:                    100
 Optimized scaling parameter    :    1.00000000000000     
 Sensitivity measure            :  -1.894873147278986E-012
 
 Done with rirpa frequency point #                     1
 Done with rirpa frequency point #                     2
 Done with rirpa frequency point #                     3
 Done with rirpa frequency point #                     4
 Done with rirpa frequency point #                     5
 Done with rirpa frequency point #                     6
 Done with rirpa frequency point #                     7
 Done with rirpa frequency point #                     8
 Done with rirpa frequency point #                     9
 Done with rirpa frequency point #                    10
 Done with rirpa frequency point #                    11
 Done with rirpa frequency point #                    12
 Done with rirpa frequency point #                    13
 Done with rirpa frequency point #                    14
 Done with rirpa frequency point #                    15
 Done with rirpa frequency point #                    16
 Done with rirpa frequency point #                    17
 Done with rirpa frequency point #                    18
 Done with rirpa frequency point #                    19
 Done with rirpa frequency point #                    20
 Done with rirpa frequency point #                    21
 Done with rirpa frequency point #                    22
 Done with rirpa frequency point #                    23
 Done with rirpa frequency point #                    24
 Done with rirpa frequency point #                    25
 Done with rirpa frequency point #                    26
 Done with rirpa frequency point #                    27
 Done with rirpa frequency point #                    28
 Done with rirpa frequency point #                    29
 Done with rirpa frequency point #                    30
 Done with rirpa frequency point #                    31
 Done with rirpa frequency point #                    32
 Done with rirpa frequency point #                    33
 Done with rirpa frequency point #                    34
 Done with rirpa frequency point #                    35
 Done with rirpa frequency point #                    36
 Done with rirpa frequency point #                    37
 Done with rirpa frequency point #                    38
 Done with rirpa frequency point #                    39
 Done with rirpa frequency point #                    40
 Done with rirpa frequency point #                    41
 Done with rirpa frequency point #                    42
 Done with rirpa frequency point #                    43
 Done with rirpa frequency point #                    44
 Done with rirpa frequency point #                    45
 Done with rirpa frequency point #                    46
 Done with rirpa frequency point #                    47
 Done with rirpa frequency point #                    48
 Done with rirpa frequency point #                    49
 Done with rirpa frequency point #                    50
 Done with rirpa frequency point #                    51
 Done with rirpa frequency point #                    52
 Done with rirpa frequency point #                    53
 Done with rirpa frequency point #                    54
 Done with rirpa frequency point #                    55
 Done with rirpa frequency point #                    56
 Done with rirpa frequency point #                    57
 Done with rirpa frequency point #                    58
 Done with rirpa frequency point #                    59
 Done with rirpa frequency point #                    60
 Done with rirpa frequency point #                    61
 Done with rirpa frequency point #                    62
 Done with rirpa frequency point #                    63
 Done with rirpa frequency point #                    64
 Done with rirpa frequency point #                    65
 Done with rirpa frequency point #                    66
 Done with rirpa frequency point #                    67
 Done with rirpa frequency point #                    68
 Done with rirpa frequency point #                    69
 Done with rirpa frequency point #                    70
 Done with rirpa frequency point #                    71
 Done with rirpa frequency point #                    72
 Done with rirpa frequency point #                    73
 Done with rirpa frequency point #                    74
 Done with rirpa frequency point #                    75
 Done with rirpa frequency point #                    76
 Done with rirpa frequency point #                    77
 Done with rirpa frequency point #                    78
 Done with rirpa frequency point #                    79
 Done with rirpa frequency point #                    80
 Done with rirpa frequency point #                    81
 Done with rirpa frequency point #                    82
 Done with rirpa frequency point #                    83
 Done with rirpa frequency point #                    84
 Done with rirpa frequency point #                    85
 Done with rirpa frequency point #                    86
 Done with rirpa frequency point #                    87
 Done with rirpa frequency point #                    88
 Done with rirpa frequency point #                    89
 Done with rirpa frequency point #                    90
 Done with rirpa frequency point #                    91
 Done with rirpa frequency point #                    92
 Done with rirpa frequency point #                    93
 Done with rirpa frequency point #                    94
 Done with rirpa frequency point #                    95
 Done with rirpa frequency point #                    96
 Done with rirpa frequency point #                    97
 Done with rirpa frequency point #                    98
 Done with rirpa frequency point #                    99
 Done with rirpa frequency point #                   100
 


 RI-RPA correlation energy: -0.4215432896411531E+01
 
 
 HXX Energy calculation skipped due to nohxx option
 

                  --------------------------------------------------- 
                 |  HXX+RIRPA total energy     =     -4.21543289641  |
                  ---------------------------------------------------- 
                 :  RIRPA correlation energy   =     -4.21543289641  :
                 :  HXX total energy           =      0.00000000000  :
                 :  Hartree energy             =      0.00000000000  :
                 :  Exact Exchange energy      =      0.00000000000  :
                  .................................................... 


    ------------------------------------------------------------------------
    Rirpa profiling                cpu                    wall         ratio
    ------------------------------------------------------------------------
    module                         sec     %               sec     %
    ------------------------------------------------------------------------
    RIRPA                      4337.6  100.00         3647.8  100.00   1.2
    STARTUP                       4.0    0.09            9.7    0.27   0.4
    riccmos                       5.6    0.13           13.4    0.37   0.4
    riccaux                       6.9    0.16            1.0    0.03   6.7
    riccbound                     5.0    0.11            3.7    0.10   1.4
    ccmkbaoi                    111.0    2.56           17.4    0.48   6.4
    cc3idxnrm                   111.6    2.57           58.8    1.61   1.9
    ecrpa                      4091.9   94.34         3542.0   97.10   1.2
    tread                       363.1    8.37         2998.5   82.20   0.1
    tqbuild                    3377.4   77.86          439.0   12.03   7.7
    trpaln                      112.9    2.60           14.1    0.39   8.0
    ------------------------------------------------------------------------
    sum                       12526.8  288.80        10745.5  294.57   1.2
    ------------------------------------------------------------------------


    ------------------------------------------------------------------------
         total  cpu-time :  1 hours 12 minutes and 18 seconds
         total wall-time :  1 hours  0 minutes and 48 seconds
    ------------------------------------------------------------------------

   ****  rirpa : all done  ****


    2019-02-22 12:28:53.072 

