
   OpenMP run-time library returned nthreads = 28

 ricc2 (c-19-414) : TURBOMOLE V7.3 ( 22142 ) 4 Jul 2018 at 18:12:42
 Copyright (C) 2018 TURBOMOLE GmbH, Karlsruhe


    2019-04-02 15:43:42.842 



                              R I C C 2 - PROGRAM

                          the quantum chemistry groups
                             at the universities in
                           Karlsruhe, Bochum & Mainz
                                   Germany



   *-----------------------------------------------------------------------*
   |                     program will use 28 thread(s)                     |
   *-----------------------------------------------------------------------*


              +--------------------------------------------------+
              | Atomic coordinate, charge and isotop information |
              +--------------------------------------------------+

                    atomic coordinates            atom    charge  isotop
         -1.68837811   -0.08285376   -0.08125341    n      7.000     0
          0.18320566   -0.48388223   -0.13430270    h      1.000     0
         -2.58597454   -1.76385271    0.06394404    h      1.000     0
         -2.22190687    1.43223798    2.16418465    c      6.000     0
         -4.23606037    1.83722200    2.25826930    h      1.000     0
         -1.66445103    0.57494301    3.96315083    h      1.000     0
         -1.25289924    3.23961306    2.00463880    h      1.000     0
          4.31700288   -0.08971758    0.05258204    o      8.000     0
          4.84995500    0.60938427   -1.53453106    h      1.000     0
          5.04627436    1.63292702    1.97903719    c      6.000     0
          4.43554691    0.82103893    3.76117469    h      1.000     0
          7.08917269    1.89575669    2.05281204    h      1.000     0
          4.14208848    3.47276031    1.76138509    h      1.000     0
 
       center of nuclear mass  :    1.43252781    0.70530001    1.01073857
       center of nuclear charge:    1.40622680    0.75822934    1.08077096

              +--------------------------------------------------+
              |               basis set information              |
              +--------------------------------------------------+

              we will work with the 1s 3p 5d 7f 9g ... basis set
              ...i.e. with spherical basis functions...

   type   atoms  prim   cont   basis
   ---------------------------------------------------------------------------
    n        1     50     30   cc-pVTZ   [4s3p2d1f|18s5p2d1f]
    h        9     16     14   cc-pVTZ   [3s2p1d|5s2p1d]
    c        2     50     30   cc-pVTZ   [4s3p2d1f|18s5p2d1f]
    o        1     50     30   cc-pVTZ   [4s3p2d1f|18s5p2d1f]
   ---------------------------------------------------------------------------
   total:   13    344    246
   ---------------------------------------------------------------------------

   total number of primitive shells          :   86
   total number of contracted shells         :   94
   total number of cartesian basis functions :  275
   total number of SCF-basis functions       :  246


 symmetry group of the molecule :   c1 

 the group has the following generators :
   c1(z)

    1 symmetry operations found

 there are 1 real representations :   a   


   =========================================================================


     restricted closed shell calculation for the wavefunction models:
               MP2        - Second Order Moeller Plesset PT


     global parameters for ricc2 program:

        hard restart (reuse of interm.) :  disabled
        soft restart (reuse of vectors) :  disabled
        threshold for vector function   :    0.100000E-05
        convergence threshold energy    :    0.100000E-06
        linear dependence threshold     :    0.100000E-13
        global print level              :      1
        maximum number of iterations    :   300
        maximum number DIIS vectors     :    10
        max. dim. of reduced space      :   100
        core memory limit (MB)          : 84000


     MP2 energy only: Energy will be calculated directly from T2 amplitudes!

     Scratch Directory : 


   =========================================================================

    der. integral neglect threshold  :  0.10E-07
    integral neglect threshold       :  0.12E-10
    integral storage threshold THIZE :  0.10E-04
    integral storage threshold THIME :         5


                  +------------------------------------------+
                  |     Auxiliary basis set information      |
                  +------------------------------------------+

              we will work with the 1s 3p 5d 7f 9g ... basis set
              ...i.e. with spherical basis functions...

   type   atoms  prim   cont   basis
   ---------------------------------------------------------------------------
    n        1     81     81   cc-pVTZ   [8s6p5d3f1g|8s6p5d3f1g]
    h        9     30     30   cc-pVTZ   [4s3p2d1f|4s3p2d1f]
    c        2     81     81   cc-pVTZ   [8s6p5d3f1g|8s6p5d3f1g]
    o        1     81     81   cc-pVTZ   [8s6p5d3f1g|8s6p5d3f1g]
   ---------------------------------------------------------------------------
   total:   13    594    594
   ---------------------------------------------------------------------------

   total number of primitive shells          :   79
   total number of contracted shells         :  182
   total number of cartesian basis functions :  719
   total number of SCF-basis functions       :  594


 maximum number of shells which are related by symmetry :  1


 The symmetry information takes   1 MB

*---------------------------------------------------------------------*
|               simplified C1 algorithm will be applied               |
*---------------------------------------------------------------------*
  MOs are in ASCII format !


 reading orbital data $scfmo  from file mos
 orbital characterization : scfconv=9



              +--------------------------------------------+
              | list of orbitals that will be kept frozen: |
              +--------------------------------------------+
              |   irrep   index      energy     occ/vir    |
              +--------------------------------------------+
              |   a         1      -20.5656     occupied   |
              |   a         2      -15.5152     occupied   |
              |   a         3      -11.2765     occupied   |
              |   a         4      -11.2290     occupied   |
              +--------------------------------------------+



   Molecular Orbital Statistic:
   ============================

   -----------------------------
   orbitals in total:
   -----------------------------
    frozen occupied :      4
    active occupied :     14
    active virtual  :    228
    frozen virtual  :      0
    all together    :    246
   -----------------------------


     time in riccmos       cpu:  1.76 sec    wall:  0.06 sec    ratio: 28.0

     total memory allocated for calculation of (Q|P)**(-1/2) : 5 MiB


     calculation of (P|Q) ...
     time in lp2sym        cpu:  0.38 sec    wall:  0.01 sec    ratio: 27.3


     calculation of the Cholesky decomposition of (P|Q)**(-1) ...
     time in invmetri      cpu:  0.85 sec    wall:  0.03 sec    ratio: 25.1

   threshold for RMS(d[D]) in SCF was     :  0.10E-06
   integral neglect threshold             :  0.12E-10
   derivative integral neglect threshold  :  0.10E-07


   =========================================================================

     Energy of reference wave function is  -210.3448008515000
     Maximum orbital residual is           0.8978774140183E-07


     Number of symmetry-nonredundant auxiliary basis functions:      594

     Block lengths for integral files:
        frozen occupied (BOI):        1 MiB
        active occupied (BJI):        1 MiB
        active virtual  (BAI):        2 MiB
        frozen virtual  (BGI):        0 MiB
               general  (BTI):        2 MiB

   =========================================================================




   **************************************************************************
   *                                                                        *
   *          OPTIMIZATION OF THE GROUND STATE CLUSTER AMPLITUDES           *
   *                                                                        *
   **************************************************************************


   Iter.   MP2 energy       Norm(Omega)   Norm(t1)  Norm(t2)     cpu    wall
   ...........................................................................
    1   -211.1811329315     ------          0.00000   0.29097    0.03    0.00
   ...........................................................................


     time in total         cpu:  1.59 sec    wall:  0.07 sec    ratio: 21.7


     **********************************************************************
     *                                                                    *
     *   RHF  energy                             :   -210.3448008515      *
     *   MP2 correlation energy (doubles)        :     -0.8363320800      *
     *                                                                    *
     *   Final MP2 energy                        :   -211.1811329315      *
     *                                                                    *
     *    E(S)   =     -0.5534766815      E(T)   =     -0.2828553985      *
     *    E(OS)  =     -0.6477618143      E(SS)  =     -0.1885702657      *
     *                                                                    *
     *   SCS-MP2 energy                          :   -211.1849717839      *
     *   (computed with  C(OS) =   1.2000  and  C(SS) =   0.3333)         *
     *                                                                    *
     *   SOS-MP2 energy                          :   -211.1868912101      *
     *   (computed with  C(OS) =   1.3000)                                *
     *                                                                    *
     *   Norm of MP1 T2 amplitudes               :      0.2909733792      *
     *                                                                    *
     **********************************************************************



    ------------------------------------------------------------------------
         total  cpu-time :  12.03 seconds
         total wall-time :   0.49 seconds
    ------------------------------------------------------------------------

   ****  ricc2 : all done  ****


    2019-04-02 15:43:43.314 

