 operating system is UNIX !
 hostname is         c-7-18.local

 ridft (c-7-18.local) : TURBOMOLE V7.0.2( ) 8 Jan 2016 at 10:54:38
 Copyright (C) 2016 TURBOMOLE GmbH, Karlsruhe


    2016-02-17 13:42:56.272 



                                  r i d f t

                        DFT program with RI approximation 
                                for coulomb part 




                                                 
                                 References:     
                                                 
          TURBOMOLE:                             
              R. Ahlrichs, M. Baer, M. Haeser, H. Horn, and
              C. Koelmel
              Electronic structure calculations on workstation
              computers: the program system TURBOMOLE
              Chem. Phys. Lett. 162: 165 (1989)
          Density Functional:                              
              O. Treutler and R. Ahlrichs                      
              Efficient Molecular Numerical Integration Schemes
              J. Chem. Phys. 102: 346 (1995)                   
          Parallel Version:                                
              Performance of parallel TURBOMOLE for Density    
              Functional Calculations                          
              M. v. Arnim and R. Ahlrichs                      
              J. Comp. Chem. 19: 1746 (1998)                   
          RI-J Method:                                     
              Auxiliary Basis Sets to approximate Coulomb      
              Potentials                                       
              Chem. Phys. Lett. 240: 283 (1995)                
              K. Eichkorn, O. Treutler, H. Oehm, M. Haeser     
              and R. Ahlrichs                                  
              Chem. Phys. Lett. 242: 652 (1995)                
                                                           
              Auxiliary Basis Sets for Main Row Atoms and their
              Use to approximate Coulomb Potentials            
              K. Eichkorn, F. Weigend, O. Treutler and         
              R. Ahlrichs                                      
              Theo. Chem. Acc. 97: 119 (1997)                   
                                                           
              Accurate Coulomb-fitting basis sets for H to Rn 
              F. Weigend                                        
              Phys. Chem. Chem. Phys. 8: 1057 (2006)            
                                                           
          Multipole accelerated RI-J (MARI-J):             
              Fast evaluation of the Coulomb potential for     
              electron densities using multipole accelerated   
              resolution of identity approximation             
              M. Sierka, A. Hogekamp and R. Ahlrichs           
              J. Chem. Phys. 118: 9136 (2003)                  
          RI-JK Method:                                     
              A fully direct RI-HF algorithm: Implementation,
              optimised auxiliary basis sets, demonstration of
              accuracy and efficiency                         
              F. Weigend                                      
              Phys. Chem. Chem. Phys. 4: 4285 (2002)           
          Two-component HF and DFT with spin-orbit coupling:  
              Self-consistent treatment of spin-orbit         
              interactions with efficient Hartree-Fock and    
              density functional methods                      
              M. K. Armbruster, F. Weigend, C. van Wüllen and 
              W. Klopper                                      
              Phys. Chem. Chem. Phys. 10: 1748 (2008)         
          Relativistic all-electron 2c calculations           
              An efficient implementation of two-component    
              relativistic exact-decoupling methods for large 
              molecules                                       
              D. Peng, N. Middendorf, F. Weigend, M. Reiher   
              J. Chem. Phys. 138, 184105 (2013)               
                                         


 


              +--------------------------------------------------+
              |      general information about current run       |
              +--------------------------------------------------+

 

 DENSITY CONVERGENCE CHECK SWITCHED ON !
 SCF CONVERGENCE IF RMS(delta[D]) <     0.1000000000E-06

 TPSS meta-GGA functional
 exchange:    LDA + TPSS
 correlation: LDA (PW) + TPSS
 A DFT calculation using the RI-J approximation will be carried out.
 Allocatable memory for RI due to $ricore (MB):        2000


              +--------------------------------------------------+
              | Atomic coordinate, charge and isotop information |
              +--------------------------------------------------+

                    atomic coordinates            atom    charge  isotop
         -1.38965263    4.39032136    1.13156966    c      6.000     0
          1.38965263   -4.39032136    1.13156966    c      6.000     0
         -0.19405862   -1.46264217  -10.20895352    c      6.000     0
          0.19405862    1.46264217  -10.20895352    c      6.000     0
         -1.03142613    7.33857758    0.96781809    c      6.000     0
          1.03142613   -7.33857758    0.96781809    c      6.000     0
          0.99073919   -2.62284104  -12.58205912    c      6.000     0
         -0.99073919    2.62284104  -12.58205912    c      6.000     0
         -3.14236228   -3.15720287   -5.78872346    c      6.000     0
          3.14236228    3.15720287   -5.78872346    c      6.000     0
         -0.14546696   -1.44219703  -14.97393405    c      6.000     0
          0.14546696    1.44219703  -14.97393405    c      6.000     0
          3.57666405    3.31980492    9.49921386    c      6.000     0
         -3.57666405   -3.31980492    9.49921386    c      6.000     0
          8.34360821   -2.69027006    7.54322033    c      6.000     0
         -8.34360821    2.69027006    7.54322033    c      6.000     0
         -3.18026697    3.38605834    5.02071977    c      6.000     0
          3.18026697   -3.38605834    5.02071977    c      6.000     0
         -4.14514923    3.79878190    0.93358873    c      6.000     0
          4.14514923   -3.79878190    0.93358873    c      6.000     0
          0.87816726   -3.55509472    3.81634591    c      6.000     0
         -0.87816726    3.55509472    3.81634591    c      6.000     0
         -1.15708952    3.24937709    9.04412472    c      6.000     0
          1.15708952   -3.24937709    9.04412472    c      6.000     0
          1.12621517   -3.27175920   -3.48897382    c      6.000     0
         -1.12621517    3.27175920   -3.48897382    c      6.000     0
          1.36529992    3.47831231    5.24731967    c      6.000     0
         -1.36529992   -3.47831231    5.24731967    c      6.000     0
         -0.12937216   -3.34389023   -1.06556824    c      6.000     0
          0.12937216    3.34389023   -1.06556824    c      6.000     0
          3.49338307   -3.19533112    7.64504652    c      6.000     0
         -3.49338307    3.19533112    7.64504652    c      6.000     0
         -0.89241693    2.52009890   -7.91670079    n      7.000     0
          0.89241693   -2.52009890   -7.91670079    n      7.000     0
          1.23429125    3.34634556    7.89010885    c      6.000     0
         -1.23429125   -3.34634556    7.89010885    c      6.000     0
          0.31247926    2.92778388   -5.73403158    c      6.000     0
         -0.31247926   -2.92778388   -5.73403158    c      6.000     0
          3.91465839   -3.31188035   -3.58718761    c      6.000     0
         -3.91465839    3.31188035   -3.58718761    c      6.000     0
          5.37163573   -3.45380748   -1.25964027    c      6.000     0
         -5.37163573    3.45380748   -1.25964027    c      6.000     0
         -5.88633949    2.95520116    8.96937169    c      6.000     0
          5.88633949   -2.95520116    8.96937169    c      6.000     0
          5.19364639   -3.57691898    3.28595213    o      8.000     0
         -5.19364639    3.57691898    3.28595213    o      8.000     0
          1.21750349   -3.15220152   11.57112811    o      8.000     0
         -1.21750349    3.15220152   11.57112811    o      8.000     0
         -3.64352559   -3.55545244    4.10544245    o      8.000     0
          3.64352559    3.55545244    4.10544245    o      8.000     0
         -5.95191601    2.92370604   11.33732515    o      8.000     0
          5.95191601   -2.92370604   11.33732515    o      8.000     0
          5.10680119   -3.05154790   -5.63973406    o      8.000     0
         -5.10680119    3.05154790   -5.63973406    o      8.000     0
         -2.38509327   -2.75436220   -0.68348394    o      8.000     0
          2.38509327    2.75436220   -0.68348394    o      8.000     0
         -3.08311181    3.06893811   12.02861702    h      1.000     0
          3.08311181   -3.06893811   12.02861702    h      1.000     0
         -2.85736947    2.56305691   -7.68603571    h      1.000     0
          2.85736947   -2.56305691   -7.68603571    h      1.000     0
          3.36139458    3.28226267    2.24385604    h      1.000     0
         -3.36139458   -3.28226267    2.24385604    h      1.000     0
         -2.23085704   -1.81457985  -10.21860359    h      1.000     0
          2.23085704    1.81457985  -10.21860359    h      1.000     0
          7.38405460   -3.09609536   -1.38071144    h      1.000     0
         -7.38405460    3.09609536   -1.38071144    h      1.000     0
         -3.04187874    2.30423662  -12.53715696    h      1.000     0
          3.04187874   -2.30423662  -12.53715696    h      1.000     0
          0.69391008   -4.67078752  -12.55460820    h      1.000     0
         -0.69391008    4.67078752  -12.55460820    h      1.000     0
         -2.16110384   -1.92893115  -15.08206286    h      1.000     0
          2.16110384    1.92893115  -15.08206286    h      1.000     0
         -3.78639701   -4.39141022   -4.27657066    h      1.000     0
          3.78639701    4.39141022   -4.27657066    h      1.000     0
          0.75642921   -2.25465568  -16.65025115    h      1.000     0
         -0.75642921    2.25465568  -16.65025115    h      1.000     0
         -4.06632176   -1.33067428   -5.50483425    h      1.000     0
          4.06632176    1.33067428   -5.50483425    h      1.000     0
         -5.23509016   -2.90973416    8.34546293    h      1.000     0
          5.23509016    2.90973416    8.34546293    h      1.000     0
         -3.74644820   -3.91912363   -7.61169219    h      1.000     0
          3.74644820    3.91912363   -7.61169219    h      1.000     0
         -3.41246197   -1.91689718   11.00470859    h      1.000     0
          3.41246197    1.91689718   11.00470859    h      1.000     0
          9.85055122   -2.35009441    8.90789191    h      1.000     0
         -9.85055122    2.35009441    8.90789191    h      1.000     0
          2.19149914   -8.24252827    2.41705757    h      1.000     0
         -2.19149914    8.24252827    2.41705757    h      1.000     0
         -8.23891606    1.13557290    6.18386662    h      1.000     0
          8.23891606   -1.13557290    6.18386662    h      1.000     0
         -0.95462482   -7.78998062    1.31327174    h      1.000     0
          0.95462482    7.78998062    1.31327174    h      1.000     0
         -1.59173730    8.02525039   -0.89864627    h      1.000     0
          1.59173730   -8.02525039   -0.89864627    h      1.000     0
          8.74979426   -4.40783439    6.46344253    h      1.000     0
         -8.74979426    4.40783439    6.46344253    h      1.000     0
          3.86326181    5.15816225   10.41369316    h      1.000     0
         -3.86326181   -5.15816225   10.41369316    h      1.000     0
 
       center of nuclear mass  :    0.00000000    0.00000000    0.92794586
       center of nuclear charge:    0.00000000    0.00000000    0.81897567

              +--------------------------------------------------+
              |               basis set information              |
              +--------------------------------------------------+

              we will work with the 1s 3p 5d 7f 9g ... basis set
              ...i.e. with spherical basis functions...

   type   atoms  prim   cont   basis
   ---------------------------------------------------------------------------
    c       42     50     30   cc-pVTZ   [4s3p2d1f|18s5p2d1f]
    n        2     50     30   cc-pVTZ   [4s3p2d1f|18s5p2d1f]
    o       12     50     30   cc-pVTZ   [4s3p2d1f|18s5p2d1f]
    h       42     16     14   cc-pVTZ   [3s2p1d|5s2p1d]
   ---------------------------------------------------------------------------
   total:   98   3472   2268
   ---------------------------------------------------------------------------

   total number of primitive shells          :   86
   total number of contracted shells         :  812
   total number of cartesian basis functions : 2590
   total number of SCF-basis functions       : 2268


 integral neglect threshold       :  0.13E-13
 integral storage threshold THIZE :  0.10E-04
 integral storage threshold THIME :         5

 RI-J AUXILIARY BASIS SET information:

              we will work with the 1s 3p 5d 7f 9g ... basis set
              ...i.e. with spherical basis functions...

   type   atoms  prim   cont   basis
   ---------------------------------------------------------------------------
    c       42     70     49   cc-pVTZ   [6s4p3d1f1g|12s5p4d2f1g]
    n        2     70     49   cc-pVTZ   [6s4p3d1f1g|12s5p4d2f1g]
    o       12     70     49   cc-pVTZ   [6s4p3d1f1g|12s5p4d2f1g]
    h       42     16     11   cc-pVTZ   [3s1p1d|5s2p1d]
   ---------------------------------------------------------------------------
   total:   98   4592   3206
   ---------------------------------------------------------------------------

   total number of primitive shells          :   80
   total number of contracted shells         : 1050
   total number of cartesian basis functions : 3920
   total number of SCF-basis functions       : 3206


 symmetry group of the molecule :   c1 

 the group has the following generators :
   c1(z)

    1 symmetry operations found

 there are 1 real representations :   a   

 maximum number of shells which are related by symmetry :  1


    mo occupation :
   irrep   mo's   occupied
    a     2268      202
 
 number of basis functions   :         2268
 number of occupied orbitals :          202
 
  
           ------------------
           density functional
           ------------------
 TPSS meta-GGA functional
 exchange:    LDA + TPSS
 correlation: LDA (PW) + TPSS
 iterations will be done with small grid
  
 spherical integration : Lebedev's spherical grid
 spherical gridsize    :           5
    i.e. gridpoints    :         590
 value for diffuse not defined
 radial integration    : Chebyshev 2nd kind (scaling 3)
 radial gridsize       :           8
 integration cells     :          98
 partition function    : becke
 partition sharpness   :           3
  

 biggest AO integral is expected to be     4.866064444
  
           ------------------------
               RI-J - INFORMATION
           ------------------------
 Contributions to RI integral batches: 
  neglected integral batches:      179570
  direct contribution:             125502
  memory contribution:       25006
 Memory core needed for (P|Q) and Cholesky     79 MByte
 Memory core minimum needed except of (P|Q)     5 MByte
 Total minimum memory core needed (sum)        83 MByte
  
 ****************************************
 Memory allocated for RI-J  1677 MByte
 ****************************************
                                            

          ------------------------
          nuclear repulsion energy  :   8859.31557760    
          ------------------------

 
          -----------------
          -S,T+V- integrals
          -----------------

 1e-integrals will be neglected if expon. factor < 0.129033E-14
 
   Difference densities algorithm switched on.
   The maximal number of linear combinations of
   difference densities is          20 .

 automatic virtual orbital shift switched on 
      shift if e(lumo)-e(homo) < 0.10000000    


 DIIS switched on: error vector is FDS-SDF
 Max. Iterations for DIIS is     :   4
 DIIS matrix (see manual) 
    Scaling factor of diagonals  :  1.200
    threshold for scaling factor :  0.000

 scf convergence criterion : increment of total energy < .1000000D-08
                  and increment of one-electron energy < .1000000D-05


 <geterg> : there is no data group $energy 

  MOs are in ASCII format !


 reading orbital data $scfmo  from file mos . 

 orbital characterization : expanded
 
 mo provided and orthogonalized by Cholesky decomposition

 DSCF restart information will be dumped onto file mos


 Starting SCF iterations

          Overall gridpoints after grid construction =        465018

 ITERATION  ENERGY          1e-ENERGY        2e-ENERGY     RMS[dD(SAO)]   TOL
   1  -2629.6157282395    -21164.569037     9675.6377307    0.000D+00 0.129D-13
                            Exc = -358.093969900     Coul =  10033.7317006    
                              N = 403.99907589    
                            current damping = 0.700
 
          max. resid. norm for Fia-block=  3.579D-01 for orbital    126a         
          max. resid. fock norm         =  4.403D+00 for orbital   2143a         

 ITERATION  ENERGY          1e-ENERGY        2e-ENERGY     RMS[dD(SAO)]   TOL
   2  -2637.6390415950    -21224.015899     9727.0612795    0.264D-02 0.886D-14
                            Exc = -359.056896076     Coul =  10086.1181756    
                              N = 403.99935297    
                            current damping = 0.650
 
          Norm of current diis error:  5.9686    
          max. resid. norm for Fia-block=  1.499D-01 for orbital      7a         
          max. resid. fock norm         =  3.732D-01 for orbital   2241a         

 ITERATION  ENERGY          1e-ENERGY        2e-ENERGY     RMS[dD(SAO)]   TOL
   3  -2638.8730762075    -21241.383617     9743.1949628    0.145D-02 0.670D-14
                            Exc = -361.205581419     Coul =  10104.4005443    
                              N = 403.99946053    
                            current damping = 0.550
 
          Norm of current diis error:  2.9965    
          max. resid. norm for Fia-block=  5.937D-02 for orbital      7a         
          max. resid. fock norm         =  6.937D-02 for orbital    218a         

 ITERATION  ENERGY          1e-ENERGY        2e-ENERGY     RMS[dD(SAO)]   TOL
   4  -2639.2747226671    -21248.090306     9749.5000062    0.119D-02 0.556D-14
                            Exc = -360.910828816     Coul =  10110.4108350    
                              N = 403.99944864    
                            current damping = 0.450
 
          Norm of current diis error:  1.2877    
          max. resid. norm for Fia-block=  3.386D-02 for orbital     69a         
          max. resid. fock norm         =  7.104D-02 for orbital   2222a         

 ITERATION  ENERGY          1e-ENERGY        2e-ENERGY     RMS[dD(SAO)]   TOL
   5  -2639.3354466615    -21249.093251     9750.4422265    0.493D-03 0.515D-14
                            Exc = -361.707521388     Coul =  10112.1497479    
                              N = 403.99946932    
                            current damping = 0.350
 
          Norm of current diis error: 0.74793    
          max. resid. norm for Fia-block=  1.400D-02 for orbital    191a         
          max. resid. fock norm         =  1.951D-02 for orbital    193a         
          mo-orthogonalization: Cholesky decomposition

 ITERATION  ENERGY          1e-ENERGY        2e-ENERGY     RMS[dD(SAO)]   TOL
   6  -2639.3550684211    -21253.992668     9755.3220221    0.360D-03 0.490D-14
                            Exc = -361.673653233     Coul =  10116.9956754    
                              N = 403.99943793    
                            current damping = 0.250
 
          Norm of current diis error: 0.41368    
          max. resid. norm for Fia-block=  7.581D-03 for orbital    195a         
          max. resid. fock norm         =  1.684D-02 for orbital   2191a         

 ITERATION  ENERGY          1e-ENERGY        2e-ENERGY     RMS[dD(SAO)]   TOL
   7  -2639.3584742583    -21251.154581     9752.4805290    0.175D-03 0.480D-14
                            Exc = -361.603542890     Coul =  10114.0840718    
                              N = 403.99945114    
                            current damping = 0.300
 
          Norm of current diis error: 0.31095    
          max. resid. norm for Fia-block=  4.529D-03 for orbital    195a         
          max. resid. fock norm         =  7.929D-03 for orbital   2252a         

 ITERATION  ENERGY          1e-ENERGY        2e-ENERGY     RMS[dD(SAO)]   TOL
   8  -2639.3626105068    -21251.859854     9753.1816660    0.708D-04 0.475D-14
                            Exc = -361.639679572     Coul =  10114.8213456    
                              N = 403.99944012    
                            current damping = 0.350
 
          Norm of current diis error: 0.90171E-01
          max. resid. norm for Fia-block=  1.843D-03 for orbital    199a         
          max. resid. fock norm         =  3.410D-03 for orbital   2238a         

 ITERATION  ENERGY          1e-ENERGY        2e-ENERGY     RMS[dD(SAO)]   TOL
   9  -2639.3627488856    -21252.004680     9753.3263535    0.352D-04 0.475D-14
                            Exc = -361.680473949     Coul =  10115.0068274    
                              N = 403.99944133    
                            current damping = 0.200
 
          Norm of current diis error: 0.68949E-01
          max. resid. norm for Fia-block=  1.037D-03 for orbital    199a         
          max. resid. fock norm         =  1.642D-03 for orbital   2238a         
          irrep a   : virtual orbitals shifted by    0.00002

 ITERATION  ENERGY          1e-ENERGY        2e-ENERGY     RMS[dD(SAO)]   TOL
  10  -2639.3629306734    -21252.238866     9753.5603574    0.189D-04 0.473D-14
                            Exc = -361.664443516     Coul =  10115.2248009    
                              N = 403.99944050    
                            current damping = 0.050
 
          Norm of current diis error: 0.21211E-01
          max. resid. norm for Fia-block=  3.439D-04 for orbital    196a         
          max. resid. fock norm         =  6.007D-04 for orbital   2114a         
          irrep a   : virtual orbitals shifted by    0.01284
          mo-orthogonalization: Cholesky decomposition

 ITERATION  ENERGY          1e-ENERGY        2e-ENERGY     RMS[dD(SAO)]   TOL
  11  -2639.3629406349    -21251.998590     9753.3200722    0.778D-05 0.470D-14
                            Exc = -361.663057455     Coul =  10114.9831297    
                              N = 403.99944056    
                            current damping = 0.100
 
          Norm of current diis error: 0.14263E-01
          max. resid. norm for Fia-block=  3.058D-04 for orbital    196a         
          max. resid. fock norm         =  4.866D-04 for orbital   2232a         
          irrep a   : virtual orbitals shifted by    0.00858

 ITERATION  ENERGY          1e-ENERGY        2e-ENERGY     RMS[dD(SAO)]   TOL
  12  -2639.3629474086    -21252.073537     9753.3950120    0.463D-05 0.469D-14
                            Exc = -361.662043882     Coul =  10115.0570559    
                              N = 403.99944022    
                            current damping = 0.150
 
          Norm of current diis error: 0.71221E-02
          max. resid. norm for Fia-block=  1.524D-04 for orbital    196a         
          max. resid. fock norm         =  2.342D-04 for orbital   2232a         
          irrep a   : virtual orbitals shifted by    0.00441

 ITERATION  ENERGY          1e-ENERGY        2e-ENERGY     RMS[dD(SAO)]   TOL
  13  -2639.3629494969    -21252.080494     9753.4019665    0.222D-05 0.468D-14
                            Exc = -361.662928500     Coul =  10115.0648950    
                              N = 403.99944025    
                            current damping = 0.050
 
          Norm of current diis error: 0.25087E-02
          max. resid. norm for Fia-block=  4.303D-05 for orbital    195a         
          max. resid. fock norm         =  7.259D-05 for orbital   2251a         
          irrep a   : virtual orbitals shifted by    0.01274

 ITERATION  ENERGY          1e-ENERGY        2e-ENERGY     RMS[dD(SAO)]   TOL
  14  -2639.3629495723    -21252.076704     9753.3981773    0.810D-06 0.467D-14
                            Exc = -361.663099414     Coul =  10115.0612767    
                              N = 403.99944040    
                            current damping = 0.100
 
          Norm of current diis error: 0.21428E-02
          max. resid. norm for Fia-block=  2.825D-05 for orbital    195a         
          max. resid. fock norm         =  5.448D-05 for orbital   2122a         
          irrep a   : virtual orbitals shifted by    0.00857

 ITERATION  ENERGY          1e-ENERGY        2e-ENERGY     RMS[dD(SAO)]   TOL
  15  -2639.3629497341    -21252.080114     9753.4015868    0.537D-06 0.467D-14
                            Exc = -361.662984596     Coul =  10115.0645714    
                              N = 403.99944030    
                            current damping = 0.150
 
          Norm of current diis error: 0.79098E-03
          max. resid. norm for Fia-block=  1.214D-05 for orbital    191a         
          max. resid. fock norm         =  2.381D-05 for orbital   2183a         
          irrep a   : virtual orbitals shifted by    0.00442
          mo-orthogonalization: Cholesky decomposition

 ITERATION  ENERGY          1e-ENERGY        2e-ENERGY     RMS[dD(SAO)]   TOL
  16  -2639.3629497522    -21252.076415     9753.3978874    0.234D-06 0.466D-14
                            Exc = -361.662887288     Coul =  10115.0607747    
                              N = 403.99944030    
                            current damping = 0.200
 
          Norm of current diis error: 0.45501E-03
          max. resid. norm for Fia-block=  6.091D-06 for orbital    202a         
          max. resid. fock norm         =  9.854D-06 for orbital   2244a         
          irrep a   : virtual orbitals shifted by    0.00027

 ITERATION  ENERGY          1e-ENERGY        2e-ENERGY     RMS[dD(SAO)]   TOL
  17  -2639.3629497594    -21252.078775     9753.4002474    0.114D-06 0.465D-14
                            Exc = -361.662909639     Coul =  10115.0631571    
                              N = 403.99944030    
                            current damping = 0.250
 
          Norm of current diis error: 0.20445E-03
          max. resid. norm for Fia-block=  3.650D-06 for orbital    202a         
          max. resid. fock norm         =  5.734D-06 for orbital    181a         

 DENSITY CONVERGED !


 ITERATION  ENERGY          1e-ENERGY        2e-ENERGY     RMS[dD(SAO)]   TOL
  18  -2639.3629497604    -21252.077885     9753.3993572    0.637D-07 0.464D-14
                            Exc = -361.662952212     Coul =  10115.0623094    
                              N = 403.99944031    
                            current damping = 0.300
 
          Norm of current diis error: 0.11699E-03
          max. resid. norm for Fia-block=  1.957D-06 for orbital    196a         
          max. resid. fock norm         =  3.971D-06 for orbital   2114a         

 DENSITY CONVERGED !


 ITERATION  ENERGY          1e-ENERGY        2e-ENERGY     RMS[dD(SAO)]   TOL
  19  -2639.3629497608    -21252.078358     9753.3998305    0.341D-07 0.464D-14
                            Exc = -361.662933938     Coul =  10115.0627644    
                              N = 403.99944031    
                            current damping = 0.350
 
          Norm of current diis error: 0.54679E-04
          max. resid. norm for Fia-block=  1.126D-06 for orbital    196a         
          max. resid. fock norm         =  1.936D-06 for orbital   2185a         

 DENSITY CONVERGED !


 ITERATION  ENERGY          1e-ENERGY        2e-ENERGY     RMS[dD(SAO)]   TOL
  20  -2639.3629497607    -21252.078181     9753.3996532    0.157D-07 0.463D-14
                            Exc = -361.662931405     Coul =  10115.0625846    
                              N = 403.99944030    
                            current damping = 0.400
 
          Norm of current diis error: 0.17293E-04
          max. resid. norm for Fia-block=  2.990D-07 for orbital    195a         
          max. resid. fock norm         =  5.976D-07 for orbital   2252a         
          mo-orthogonalization: Cholesky decomposition

 ENERGY & DENSITY CONVERGED !

          Overall gridpoints after grid construction =       1471228

 ITERATION  ENERGY          1e-ENERGY        2e-ENERGY     RMS[dD(SAO)]   TOL
  21  -2639.3619011460    -21252.078148     9753.4006688    0.466D-08 0.462D-14
                            Exc = -361.661882090     Coul =  10115.0625509    
                              N = 404.00013931    
                            current damping = 0.450
 
          Norm of current diis error: 0.12224E-04
          max. resid. norm for Fia-block=  2.020D-07 for orbital    191a         
          max. resid. fock norm         =  3.973D-07 for orbital   2183a         

 End of SCF iterations

   convergence criteria satisfied after   21 iterations


                  ------------------------------------------ 
                 |  total energy      =  -2639.36190114595  |
                  ------------------------------------------ 
                 :  kinetic energy    =   2624.69032830794  :
                 :  potential energy  =  -5264.05222945389  :
                 :  virial theorem    =      1.99444124247  :
                 :  wavefunction norm =      1.00000000000  :
                  .......................................... 


 <geterg> : there is no data group $energy 


 <skperg> : $end is missing 


 orbitals $scfmo  will be written to file mos

    irrep                198a        199a        200a        201a        202a   
 eigenvalues H         -0.21429    -0.20078    -0.19923    -0.19011    -0.17968
            eV          -5.8312     -5.4636     -5.4212     -5.1732     -4.8895
 occupation              2.0000      2.0000      2.0000      2.0000      2.0000 

    irrep                203a        204a        205a        206a        207a   
 eigenvalues H         -0.09657    -0.09416    -0.08694    -0.08643    -0.07241
            eV          -2.6279     -2.5624     -2.3657     -2.3518     -1.9703
 
 
 
 
 ==============================================================================
                           electrostatic moments
 ==============================================================================

 reference point for electrostatic moments:    0.00000   0.00000   0.00000

 
              nuc           elec       ->  total
 ------------------------------------------------------------------------------
                          charge      
 ------------------------------------------------------------------------------
         404.000000    -404.000000      -0.000000
 
 ------------------------------------------------------------------------------
                       dipole moment  
 ------------------------------------------------------------------------------
   x       0.000000      -0.000000      -0.000000
   y       0.000000      -0.000000      -0.000000
   z     330.866170    -336.334177      -5.468007
 
   | dipole moment | =     5.4680 a.u. =    13.8983 debye 
 
 ------------------------------------------------------------------------------
                     quadrupole moment
 ------------------------------------------------------------------------------
  xx    5316.367665   -5565.226551    -248.858886
  yy    4887.730659   -5122.343276    -234.612617
  zz   22427.779167  -22675.436995    -247.657828
  xy   -1942.603680    1945.506046       2.902366
  xz       0.000000       0.000000       0.000000
  yz       0.000000      -0.000000      -0.000000
 
     1/3  trace=    -243.709777
     anisotropy=      14.579414
 
 ==============================================================================
 
 


    ------------------------------------------------------------------------
         total  cpu-time :  2 hours 13 minutes and 33 seconds
         total wall-time :  2 hours 13 minutes and 29 seconds
    ------------------------------------------------------------------------


   ****  ridft : all done  ****


    2016-02-17 15:56:25.195 

