
   OpenMP run-time library returned nthreads = 28

 ricc2 (c-13-32) : TURBOMOLE V7.3 ( 22142 ) 4 Jul 2018 at 18:12:42
 Copyright (C) 2018 TURBOMOLE GmbH, Karlsruhe


    2019-03-24 06:54:27.633 



                              R I C C 2 - PROGRAM

                          the quantum chemistry groups
                             at the universities in
                           Karlsruhe, Bochum & Mainz
                                   Germany



   *-----------------------------------------------------------------------*
   |                     program will use 28 thread(s)                     |
   *-----------------------------------------------------------------------*


              +--------------------------------------------------+
              | Atomic coordinate, charge and isotop information |
              +--------------------------------------------------+

                    atomic coordinates            atom    charge  isotop
         -4.21408928   -0.28723837    4.89628041    c      6.000     0
         -1.79523983   -1.39650761    4.99454617    c      6.000     0
          0.24755412    0.28912810    5.03989960    c      6.000     0
         -2.26011245    3.62260500    4.98698726    c      6.000     0
          1.49477337   -3.70764267    4.95864137    c      6.000     0
         -4.39928244    2.25255355    4.90194959    n      7.000     0
          0.14172946    2.81947139    5.05312768    n      7.000     0
         -0.98265759   -3.88905638    4.94352356    n      7.000     0
          2.35837821   -1.24532952    5.04178932    n      7.000     0
         -6.38349488   -1.67240763    4.84336808    n      7.000     0
         -2.52278439    5.65972977    4.97375918    h      1.000     0
          2.79301522   -5.28367427    4.88305233    h      1.000     0
          4.17440503   -0.66140415    4.90761877    h      1.000     0
         -7.96519565   -0.73321374    4.31802421    h      1.000     0
         -6.25499350   -3.50544198    4.31424476    h      1.000     0
 
       center of nuclear mass  :   -1.61348125   -0.34508340    4.95463573
       center of nuclear charge:   -1.62565040   -0.36493311    4.94487337

              +--------------------------------------------------+
              |               basis set information              |
              +--------------------------------------------------+

              we will work with the 1s 3p 5d 7f 9g ... basis set
              ...i.e. with spherical basis functions...

   type   atoms  prim   cont   basis
   ---------------------------------------------------------------------------
    c        5     77     55   cc-pVQZ   [5s4p3d2f1g|21s6p3d2f1g]
    n        5     77     55   cc-pVQZ   [5s4p3d2f1g|21s6p3d2f1g]
    h        5     32     30   cc-pVQZ   [4s3p2d1f|6s3p2d1f]
   ---------------------------------------------------------------------------
   total:   15    930    700
   ---------------------------------------------------------------------------

   total number of primitive shells          :   78
   total number of contracted shells         :  200
   total number of cartesian basis functions :  875
   total number of SCF-basis functions       :  700


 symmetry group of the molecule :   c1 

 the group has the following generators :
   c1(z)

    1 symmetry operations found

 there are 1 real representations :   a   


   =========================================================================


     restricted closed shell calculation for the wavefunction models:
               CC2        - Approximate CC Singles and Doubles


     global parameters for ricc2 program:

        hard restart (reuse of interm.) :  disabled
        soft restart (reuse of vectors) :  disabled
        threshold for vector function   :    0.100000E-05
        convergence threshold energy    :    0.100000E-06
        linear dependence threshold     :    0.100000E-13
        global print level              :      1
        maximum number of iterations    :   300
        maximum number DIIS vectors     :    10
        max. dim. of reduced space      :   100
        core memory limit (MB)          : *****

     Scratch Directory : 


   =========================================================================

    der. integral neglect threshold  :  0.10E-07
    integral neglect threshold       :  0.38E-11
    integral storage threshold THIZE :  0.10E-04
    integral storage threshold THIME :         5


                  +------------------------------------------+
                  |     Auxiliary basis set information      |
                  +------------------------------------------+

              we will work with the 1s 3p 5d 7f 9g ... basis set
              ...i.e. with spherical basis functions...

   type   atoms  prim   cont   basis
   ---------------------------------------------------------------------------
    c        5    132    132   cc-pVQZ   [8s7p6d5f3g1h|8s7p6d5f3g1h]
    n        5    132    132   cc-pVQZ   [8s7p6d5f3g1h|8s7p6d5f3g1h]
    h        5     55     55   cc-pVQZ   [5s4p3d2f1g|5s4p3d2f1g]
   ---------------------------------------------------------------------------
   total:   15   1595   1595
   ---------------------------------------------------------------------------

   total number of primitive shells          :   75
   total number of contracted shells         :  375
   total number of cartesian basis functions : 2160
   total number of SCF-basis functions       : 1595


 maximum number of shells which are related by symmetry :  1


 The symmetry information takes   1 MB

*---------------------------------------------------------------------*
|               simplified C1 algorithm will be applied               |
*---------------------------------------------------------------------*
  MOs are in ASCII format !


 reading orbital data $scfmo  from file mos
 orbital characterization : scfconv=9



              +--------------------------------------------+
              | list of orbitals that will be kept frozen: |
              +--------------------------------------------+
              |   irrep   index      energy     occ/vir    |
              +--------------------------------------------+
              |   a         1      -15.6299     occupied   |
              |   a         2      -15.5813     occupied   |
              |   a         3      -15.5689     occupied   |
              |   a         4      -15.5571     occupied   |
              |   a         5      -15.5503     occupied   |
              |   a         6      -11.3377     occupied   |
              |   a         7      -11.3251     occupied   |
              |   a         8      -11.3191     occupied   |
              |   a         9      -11.3108     occupied   |
              |   a        10      -11.2537     occupied   |
              +--------------------------------------------+



   Molecular Orbital Statistic:
   ============================

   -----------------------------
   orbitals in total:
   -----------------------------
    frozen occupied :     10
    active occupied :     25
    active virtual  :    665
    frozen virtual  :      0
    all together    :    700
   -----------------------------


     time in riccmos       cpu:  7.90 sec    wall:  0.74 sec    ratio: 10.7

     total memory allocated for calculation of (Q|P)**(-1/2) : 30 MiB


     calculation of (P|Q) ...
     time in lp2sym        cpu:  2.61 sec    wall:  0.09 sec    ratio: 27.7


     calculation of the Cholesky decomposition of (P|Q)**(-1) ...
     time in invmetri      cpu: 11.50 sec    wall:  0.43 sec    ratio: 26.7

   threshold for RMS(d[D]) in SCF was     :  0.10E-06
   integral neglect threshold             :  0.38E-11
   derivative integral neglect threshold  :  0.10E-07


   =========================================================================

     Energy of reference wave function is  -464.7073801290000
     Maximum orbital residual is           0.2713430342858E-06


     Number of symmetry-nonredundant auxiliary basis functions:     1595

     Block lengths for integral files:
        frozen occupied (BOI):        1 MiB
        active occupied (BJI):        1 MiB
        active virtual  (BAI):        9 MiB
        frozen virtual  (BGI):        0 MiB
               general  (BTI):        9 MiB

   =========================================================================




   **************************************************************************
   *                                                                        *
   *          OPTIMIZATION OF THE GROUND STATE CLUSTER AMPLITUDES           *
   *                                                                        *
   **************************************************************************
     start CC2 from scratch because restart not enabled


   Iter.   MP2 energy       Norm(Omega)   Norm(t1)  Norm(t2)     cpu    wall
   ...........................................................................
    1   -466.5950487247    0.1507152117     0.00000   0.44512   10.99    0.41
   ...........................................................................
     time in total         cpu: 11 min  6 s  wall:  0 min 26 s  ratio: 25.6


              *****************************************************
              *                                                   *
              *   RHF  energy           :   -464.7073801290       *
              *   correlation energy    :     -1.8876685957       *
              *                                                   *
              *   Final MP2 energy      :   -466.5950487247       *
              *   D1 diagnostic         :      0.0427             *
              *                                                   *
              *****************************************************



   Iter.   CC2 energy       Norm(Omega)    Norm(t1)  Norm(t2)     cpu    wall
   ...........................................................................
    1   -466.6150102075    0.0320162223     0.08920   0.45218   12.74    0.48
    2   -466.6218902012    0.0057922536     0.12954   0.45520   13.36    0.50
    3   -466.6227484177    0.0013156356     0.13826   0.45566   13.13    0.50
    4   -466.6227374187    0.0002604165     0.13926   0.45567   13.23    0.52
    5   -466.6227400144    0.0000634382     0.13932   0.45567   13.74    0.53
    6   -466.6227409420    0.0000141387     0.13933   0.45567   13.85    0.54
    7   -466.6227409302    0.0000036703     0.13933   0.45567   13.28    0.52
    8   -466.6227409310    0.0000008503     0.13933   0.45567   12.66    0.49
   ...........................................................................
   CC equations converged in  8 iterations.

   last energy change         :  0.81E-09
   convergence threshold      :  0.10E-06
   norm of the vector function:  0.85E-06
   convergence threshold      :  0.10E-05

     time in total         cpu:  1 h 46 min  wall:  0 h  4 min  ratio: 25.9


     **********************************************************************
     *                                                                    *
     *   RHF  energy                             :   -464.7073801290      *
     *   correlation energy                      :     -1.9153608020      *
     *                                                                    *
     *   Final CC2 energy                        :   -466.6227409310      *
     *                                                                    *
     *   D1 diagnostic                           :      0.0713            *
     *                                                                    *
     **********************************************************************



    ------------------------------------------------------------------------
         total  cpu-time :  1 hours 59 minutes and  6 seconds
         total wall-time :  4 minutes and 37 seconds
    ------------------------------------------------------------------------

   ****  ricc2 : all done  ****


    2019-03-24 06:59:04.411 

