Using Slurm to start processes with PMI2
STARTING ridft ON 8 PROCESSORS!
RUNNING PROGRAM /beegfs/modfac/apps/TURBOMOLE/7.0_intel_GA/bin/em64t-unknown-linux-gnu_mpi/ridft_mpi.
PLEASE WAIT UNTIL ridft HAS FINISHED.
Look for the output in slave1.output.
  this is node-proc. number 1 running on node c-16-28.local
  the total number of node-proc. spawned is            8
  parallel platform: MPP, or cluster with fast interconnect

 ridft (c-16-28.local) : TURBOMOLE V7.0.2( ) 15 Jan 2016 at 17:47:42
 Copyright (C) 2016 TURBOMOLE GmbH, Karlsruhe


    2017-11-08 00:02:02.218 



                                  r i d f t

                        DFT program with RI approximation 
                                for coulomb part 




                                                 
                                 References:     
                                                 
          TURBOMOLE:                             
              R. Ahlrichs, M. Baer, M. Haeser, H. Horn, and
              C. Koelmel
              Electronic structure calculations on workstation
              computers: the program system TURBOMOLE
              Chem. Phys. Lett. 162: 165 (1989)
          Density Functional:                              
              O. Treutler and R. Ahlrichs                      
              Efficient Molecular Numerical Integration Schemes
              J. Chem. Phys. 102: 346 (1995)                   
          Parallel Version:                                
              Performance of parallel TURBOMOLE for Density    
              Functional Calculations                          
              M. v. Arnim and R. Ahlrichs                      
              J. Comp. Chem. 19: 1746 (1998)                   
          RI-J Method:                                     
              Auxiliary Basis Sets to approximate Coulomb      
              Potentials                                       
              Chem. Phys. Lett. 240: 283 (1995)                
              K. Eichkorn, O. Treutler, H. Oehm, M. Haeser     
              and R. Ahlrichs                                  
              Chem. Phys. Lett. 242: 652 (1995)                
                                                           
              Auxiliary Basis Sets for Main Row Atoms and their
              Use to approximate Coulomb Potentials            
              K. Eichkorn, F. Weigend, O. Treutler and         
              R. Ahlrichs                                      
              Theo. Chem. Acc. 97: 119 (1997)                   
                                                           
              Accurate Coulomb-fitting basis sets for H to Rn 
              F. Weigend                                        
              Phys. Chem. Chem. Phys. 8: 1057 (2006)            
                                                           
          Multipole accelerated RI-J (MARI-J):             
              Fast evaluation of the Coulomb potential for     
              electron densities using multipole accelerated   
              resolution of identity approximation             
              M. Sierka, A. Hogekamp and R. Ahlrichs           
              J. Chem. Phys. 118: 9136 (2003)                  
          RI-JK Method:                                     
              A fully direct RI-HF algorithm: Implementation,
              optimised auxiliary basis sets, demonstration of
              accuracy and efficiency                         
              F. Weigend                                      
              Phys. Chem. Chem. Phys. 4: 4285 (2002)           
          Two-component HF and DFT with spin-orbit coupling:  
              Self-consistent treatment of spin-orbit         
              interactions with efficient Hartree-Fock and    
              density functional methods                      
              M. K. Armbruster, F. Weigend, C. van Wüllen and 
              W. Klopper                                      
              Phys. Chem. Chem. Phys. 10: 1748 (2008)         
          Relativistic all-electron 2c calculations           
              An efficient implementation of two-component    
              relativistic exact-decoupling methods for large 
              molecules                                       
              D. Peng, N. Middendorf, F. Weigend, M. Reiher   
              J. Chem. Phys. 138, 184105 (2013)               
                                         


 


              +--------------------------------------------------+
              |      general information about current run       |
              +--------------------------------------------------+

 

 SCF run will be profiled !


 DENSITY CONVERGENCE CHECK SWITCHED ON !
 SCF CONVERGENCE IF RMS(delta[D]) <     0.1000000000E-06

 TPSS meta-GGA functional
 exchange:    LDA + TPSS
 correlation: LDA (PW) + TPSS
 A DFT calculation using the RI-J approximation will be carried out.
 Allocatable memory for RI due to $ricore (MB):       30000


              +--------------------------------------------------+
              | Atomic coordinate, charge and isotop information |
              +--------------------------------------------------+

                    atomic coordinates            atom    charge  isotop
          0.17531650    2.82970293    3.32049930    c      0.000     0
          0.05606496    2.73083908    0.42240682    c      0.000     0
         -2.31188598    1.32020499   -0.49232390    c      0.000     0
         -2.26205669   -1.37279213    0.59991601    c      0.000     0
         -2.21417076   -1.26429958    3.49644773    c      0.000     0
          0.16310496    0.13303533    4.37338005    c      0.000     0
         -2.40003786    1.20834243   -3.38764760    c      0.000     0
         -0.03994704   -0.14216302   -4.37685777    c      0.000     0
          0.06863374   -2.83857696   -3.32852105    c      0.000     0
          0.08442047   -2.74111399   -0.42744024    c      0.000     0
          2.44892733   -1.32545399    0.50046013    c      0.000     0
          2.39919189    1.35655760   -0.61480319    c      0.000     0
          2.32680764    1.28695834   -3.51740980    c      0.000     0
          2.51103112   -1.25637749    3.40368698    c      0.000     0
         -0.14363725   -0.23280331   -7.35385471    n      0.000     0
          1.76591359   -2.06254630   -8.41542740    c      0.000     0
          0.19760846    0.22838963    7.35182906    n      0.000     0
          2.12567917    2.09026026    8.32066282    c      0.000     0
         -2.33576933    1.00895917    8.40537896    c      0.000     0
          0.83511146   -2.31311555    8.47340247    c      0.000     0
         -2.71107642   -1.05181922   -8.28905044    c      0.000     0
          0.40018359    2.32054320   -8.49836746    c      0.000     0
          1.89876784   -7.68234026    5.90679478    o      8.000     0
          2.06117078   -8.65361703    3.80773851    c      6.000     0
          4.23037868   -8.84512605    2.36524774    n      7.000     0
          3.85521210  -10.37157492    0.11441070    c      6.000     0
          0.98620952  -11.03454343    0.20025841    c      6.000     0
          0.11366443   -9.78120917    2.48183738    n      7.000     0
          0.02482346  -10.00284864   -2.15569236    n      7.000     0
          1.91562784   -9.01176622   -3.65968345    c      6.000     0
          4.12659081   -9.03825140   -2.26991296    n      7.000     0
          6.55119240   -8.39215966   -3.36286290    c      6.000     0
          7.66724370   -6.11048330   -2.32261170    n      7.000     0
          7.99160265   -3.96061263   -3.77078176    c      6.000     0
          9.53542111   -2.32350887   -2.44888163    n      7.000     0
         10.53296331   -3.44992515   -0.15228905    c      6.000     0
          9.24623305   -6.09901748   -0.07292130    c      6.000     0
          7.89673373   -6.07575066    2.31589954    n      7.000     0
          8.32928584   -3.90073471    3.69561169    c      6.000     0
          9.71219200   -2.27499598    2.18887411    n      7.000     0
         10.59872716   -0.07880151   -3.61435936    c      6.000     0
          9.60393220    2.26719139   -2.61587817    n      7.000     0
         10.53546975    3.44050487   -0.31565632    c      6.000     0
          9.25239313    6.09233347   -0.33576825    c      6.000     0
          7.79922306    6.07479297   -2.66271561    n      7.000     0
          8.16031579    3.89760385   -4.05933559    c      6.000     0
          9.64344795    2.31631802    2.02485024    n      7.000     0
          8.16211432    3.95496692    3.41432919    c      6.000     0
          7.77348155    6.10416100    1.98110970    n      7.000     0
          6.57010704    8.29027650   -3.69547296    c      6.000     0
          4.14009550    8.85239570   -2.55117027    n      7.000     0
          3.86432932   10.37453401   -0.28318639    c      6.000     0
          0.99453769   11.03914665   -0.24262096    c      6.000     0
          0.02253732    9.78895241   -2.48539318    n      7.000     0
          1.90935329    8.66210763   -3.89695162    c      6.000     0
          4.23847390    9.03707659    2.08497960    n      7.000     0
          2.09033290    9.01069215    3.57014629    c      6.000     0
          0.13633681   10.00542819    2.15196419    n      7.000     0
         -2.45741588   10.29520577   -3.53734339    c      6.000     0
         -4.46271651    8.80943480   -2.41146150    n      7.000     0
         -5.71922799    9.50901589   -0.07299830    c      6.000     0
         -8.02537836    7.67973893    0.03142782    c      6.000     0
         -7.80540785    6.24179610   -2.29573409    n      7.000     0
         -5.80060030    7.02671365   -3.77305206    c      6.000     0
         -4.33309885    8.92689815    2.22390683    n      7.000     0
         -5.53194407    7.12377653    3.68041972    c      6.000     0
         -7.59890841    6.25489679    2.34217686    n      7.000     0
         -9.77761554    4.59843981   -3.25245866    c      6.000     0
         -9.77685086    2.09011459   -2.14479136    n      7.000     0
        -11.02410900    1.48130630    0.22399027    c      6.000     0
        -11.02751270   -1.46496471    0.26301939    c      6.000     0
         -9.74190282   -2.12835511   -2.07041420    n      7.000     0
         -9.20248391   -0.03962929   -3.54224543    c      6.000     0
         -9.63135343    2.14073950    2.49614413    n      7.000     0
         -9.02789408    0.05009556    3.94019832    c      6.000     0
         -9.67514645   -2.07777804    2.57208088    n      7.000     0
         -9.67764819   -4.67121670   -3.08358512    c      6.000     0
         -7.71019171   -6.24590331   -2.00233528    n      7.000     0
         -5.70197329   -7.11323650   -3.42841398    c      6.000     0
         -4.44153843   -8.91760694   -2.02664601    n      7.000     0
         -5.72764932   -9.50180248    0.32732590    c      6.000     0
         -8.03573816   -7.67178688    0.32460209    c      6.000     0
         -7.71381073   -6.23597605    2.64091977    n      7.000     0
         -5.64820386   -7.02401065    4.03040387    c      6.000     0
         -4.37104764   -8.80536070    2.60993864    n      7.000     0
         -2.48916405  -10.50906464   -3.11465884    c      6.000     0
         -9.63709693   -4.58551996    3.68060502    c      6.000     0
         -9.51839793    4.68230951    3.50847560    c      6.000     0
         -2.33162596   10.51545879    3.22261845    c      6.000     0
          6.70792056    8.38711899    3.07025091    c      6.000     0
         10.75524163    0.06959612    3.14038396    c      6.000     0
          6.70872862   -8.28753516    3.40340964    c      6.000     0
         -2.31632170  -10.29017750    3.64384575    c      6.000     0
         -5.15475996   -6.42490432   -5.57667273    o      8.000     0
          1.68133159   -8.27481763   -5.84646211    o      8.000     0
          7.09347839   -3.58702783   -5.87637672    o      8.000     0
          7.37393493    3.49883773   -6.20383486    o      8.000     0
         -8.38923260   -0.07382607   -5.71398990    o      8.000     0
         -5.31140432    6.29797530   -5.92068869    o      8.000     0
          1.65424650    7.69343122   -5.98790085    o      8.000     0
         -8.11096776    0.08148988    6.07024575    o      8.000     0
         -5.06779298   -6.29899237    6.15613033    o      8.000     0
         -4.89305688    6.43693725    5.80371361    o      8.000     0
          1.95143251    8.27115623    5.76419570    o      8.000     0
          7.64266267   -3.50014965    5.87381978    o      8.000     0
          7.36023521    3.58336206    5.55888565    o      8.000     0
        -12.92089879   -2.29950796    0.30062314    h      1.000     0
         10.37313555    0.13053514    5.16539403    h      1.000     0
          6.49146563    8.06405330    5.09495356    h      1.000     0
          8.01221759    9.95844202    2.72601484    h      1.000     0
         12.79603558    0.09697431    2.79072379    h      1.000     0
          7.93525174   -9.92997158    3.11070738    h      1.000     0
         -2.82379102   12.49643567    2.87705248    h      1.000     0
         -2.20465923   10.14911323    5.24730099    h      1.000     0
          6.46762337   -7.92076078    5.41775039    h      1.000     0
         -2.75449802  -12.30161272    3.41911965    h      1.000     0
        -11.36408036    5.58950007    3.26593540    h      1.000     0
         -9.05266448    4.52370335    5.51044023    h      1.000     0
         -2.15854818   -9.80819422    5.64199310    h      1.000     0
          6.24137052    7.92653201   -5.69796858    h      1.000     0
         -9.23090631   -4.36189595    5.68922187    h      1.000     0
        -11.49224079   -5.46421449    3.41216634    h      1.000     0
          7.81201959    9.92944085   -3.45420121    h      1.000     0
         -9.86848673   -8.63245311    0.32391360    h      1.000     0
         -2.88725206   12.30632473   -3.29461313    h      1.000     0
         -6.24555625  -11.50463215    0.38141039    h      1.000     0
         -2.38862000    9.81187570   -5.54021251    h      1.000     0
          0.59780172  -13.06457595    0.30491353    h      1.000     0
        -11.61602202    5.48413575   -2.90385461    h      1.000     0
          5.09832534  -12.02591062    0.15711425    h      1.000     0
         -9.45942122    4.37419648   -5.27678478    h      1.000     0
         10.58006623   -7.68013945   -0.12959881    h      1.000     0
        -11.51166043   -5.57604764   -2.75801390    h      1.000     0
         12.59948034   -3.52456550   -0.23211459    h      1.000     0
         -9.30164671   -4.51520593   -5.10450379    h      1.000     0
         12.60361766    3.51052355   -0.33215560    h      1.000     0
         10.12420758   -0.13901078   -5.61976903    h      1.000     0
         10.59080274    7.67059178   -0.33582623    h      1.000     0
         12.65350199   -0.10954846   -3.35887531    h      1.000     0
          5.10527870   12.02839125   -0.37695142    h      1.000     0
          7.86728399   -9.96516492   -3.07601500    h      1.000     0
          0.60340959   13.06960713   -0.32786942    h      1.000     0
          6.24628679   -8.06955682   -5.37626111    h      1.000     0
         -6.23837242   11.51198407   -0.10723915    h      1.000     0
         -2.45248841  -10.14278681   -5.14301479    h      1.000     0
         -9.85610655    8.64097978    0.11138685    h      1.000     0
         -2.96873379  -12.48933780   -2.74757689    h      1.000     0
        -12.91490374    2.32127365    0.27271857    h      1.000     0
          0.11287303   -4.68449177    0.29230504    h      0.000     0
          4.14083232   -2.31880431   -0.16438877    h      0.000     0
          4.10208574    2.38055282   -0.02889287    h      0.000     0
          0.01658154    4.67403345   -0.29785577    h      0.000     0
         -4.01046209    2.30146444    0.17999548    h      0.000     0
         -3.97325103   -2.38326652    0.00791739    h      0.000     0
         -1.41308536    3.92353517    4.06394336    h      0.000     0
          1.91721395    3.79027938    3.87202836    h      0.000     0
          4.23027659   -0.30381134    4.04485360    h      0.000     0
          2.55463471   -3.19488575    4.11180657    h      0.000     0
         -2.25350995   -3.17721201    4.27483807    h      0.000     0
         -3.90957195   -0.28703947    4.14990066    h      0.000     0
         -4.10335176    0.19349043   -3.95813238    h      0.000     0
         -2.51864086    3.11830122   -4.16566558    h      0.000     0
          2.30647615    3.22540660   -4.22645233    h      0.000     0
          4.02902681    0.36169437   -4.23836521    h      0.000     0
         -1.53522507   -3.95847591   -3.99667202    h      0.000     0
          1.79851917   -3.76996685   -3.96236041    h      0.000     0
         -2.05803586    1.28351998   10.43361725    h      0.000     0
         -2.94572316    2.75117723    7.49347450    h      0.000     0
         -3.69919998   -0.49162675    8.06596960    h      0.000     0
          1.52524150    3.99622132    7.83166526    h      0.000     0
          2.18263779    1.85267967   10.37163085    h      0.000     0
          3.95240941    1.68273357    7.46848422    h      0.000     0
          0.57706045   -2.12901359   10.51441509    h      0.000     0
         -0.42518373   -3.73712724    7.68888569    h      0.000     0
          2.79167469   -2.76842364    8.03283435    h      0.000     0
          1.21875653   -3.97818706   -7.90181803    h      0.000     0
          1.72316826   -1.82232404  -10.46638593    h      0.000     0
          3.62388365   -1.62702314   -7.64893154    h      0.000     0
          0.04651718    2.13619118  -10.52495514    h      0.000     0
         -0.84275792    3.72361837   -7.65022046    h      0.000     0
          2.36852147    2.80506823   -8.15194979    h      0.000     0
         -2.52451204   -1.32030231  -10.32844612    h      0.000     0
         -3.25111776   -2.80380628   -7.35196229    h      0.000     0
         -4.08036242    0.42679650   -7.88324977    h      0.000     0
          0.27961244    0.46483227   14.85968186    cl     0.000     0
         -0.41359587   -0.45547799  -14.85632093    cl     0.000     0
 
       center of nuclear mass  :   -0.00889961    0.00067821    0.00023818
       center of nuclear charge:   -0.02102450    0.00163345    0.00060682

              +--------------------------------------------------+
              |               basis set information              |
              +--------------------------------------------------+

              we will work with the 1s 3p 5d 7f 9g ... basis set
              ...i.e. with spherical basis functions...

   type   atoms  prim   cont   basis
   ---------------------------------------------------------------------------
    c       62     50     30   cc-pVTZ   [4s3p2d1f|18s5p2d1f]
    n       30     50     30   cc-pVTZ   [4s3p2d1f|18s5p2d1f]
    o       14     50     30   cc-pVTZ   [4s3p2d1f|18s5p2d1f]
    h       78     16     14   cc-pVTZ   [3s2p1d|5s2p1d]
    cl       2    106     34   cc-pVTZ   [5s4p2d1f|41s16p2d1f]
   ---------------------------------------------------------------------------
   total:  186   6760   4340
   ---------------------------------------------------------------------------

   total number of primitive shells          :  146
   total number of contracted shells         : 1552
   total number of cartesian basis functions : 4958
   total number of SCF-basis functions       : 4340


 integral neglect threshold       :  0.67E-14
 integral storage threshold THIZE :  0.10E-04
 integral storage threshold THIME :         5

 RI-J AUXILIARY BASIS SET information:

              we will work with the 1s 3p 5d 7f 9g ... basis set
              ...i.e. with spherical basis functions...

   type   atoms  prim   cont   basis
   ---------------------------------------------------------------------------
    c       62     70     49   cc-pVTZ   [6s4p3d1f1g|12s5p4d2f1g]
    n       30     70     49   cc-pVTZ   [6s4p3d1f1g|12s5p4d2f1g]
    o       14     70     49   cc-pVTZ   [6s4p3d1f1g|12s5p4d2f1g]
    h       78     16     11   cc-pVTZ   [3s1p1d|5s2p1d]
    cl       2     77     51   cc-pVTZ   [8s4p3d1f1g|14s5p5d2f1g]
   ---------------------------------------------------------------------------
   total:  186   8822   6154
   ---------------------------------------------------------------------------

   total number of primitive shells          :  107
   total number of contracted shells         : 2014
   total number of cartesian basis functions : 7528
   total number of SCF-basis functions       : 6154


 symmetry group of the molecule :   c1 

 the group has the following generators :
   c1(z)

    1 symmetry operations found

 there are 1 real representations :   a   

 maximum number of shells which are related by symmetry :  1


    mo occupation :
   irrep   mo's   occupied
    a     4340      301
 
 number of basis functions   :         4340
 number of occupied orbitals :          301
 
  
           ------------------
           density functional
           ------------------
 Dummy atoms with grid-point found.
 DFT quadrature threshold dgrenze tightened by factor 1/10.

 TPSS meta-GGA functional
 exchange:    LDA + TPSS
 correlation: LDA (PW) + TPSS
 Dummy atoms with grid-point found.
 DFT quadrature threshold dgrenze tightened by factor 1/10.

 Dummy atoms with grid-point found.
 DFT quadrature threshold dgrenze tightened by factor 1/10.

 grinp -> nfun, dfgga, dfhybrid 
           5 F F
 iterations will be done with small grid
  
 spherical integration : Lebedev's spherical grid
 spherical gridsize    :           5
    i.e. gridpoints    :         590
 value for diffuse not defined
 radial integration    : Chebyshev 2nd kind (scaling 3)
 radial gridsize       :           8
 integration cells     :         186
 partition function    : becke
 partition sharpness   :           3
  
 found dummy atom(s) with basis: included in dft

 <rddim> : input of entry tasksize
           from data group '$pardft' failed !

               Default values taken

 <rddim> : input of entry memdiv
           from data group '$pardft' failed !

               Default values taken
  RIDFT: memory allocation for DFT gridpoints
  MEMORY is divided by 1 as DEFAULT
 Each node can hold at most  the            1 -th part
 of the gridpoints    

 biggest AO integral is expected to be    10.299856942
  
           ------------------------
               RI-J - INFORMATION
           ------------------------
 
 
 **************************************************
 *      MEMORY ALLOCATION FOR PARALLEL RI-DFT     *
 **************************************************
 
 
MEMORY FOR (MU NU/ ALPHA), SEQUENTIAL RUN              29700 MByte
 
            DIFFERENCE IN MEMORY NEED:       DIAG./SLAVE  
 
      TOTAL DIFFERENCE :                   1051 MByte
 
      difference in xcore:                  301 MByte
      difference in fatmat:                 275 MByte
      getcor calls skipped by slaves:       476 MByte
 
 
           Integral memory available for diagonal.     29700 MByte
 
           Integral memory available for slave             0 MByte
 
         MEMORY FOR (MU NU/ ALPHA) ON DIAGONALIZER     29700 MByte
 
         MEMORY FOR (MU NU/ ALPHA) ON ONE SLAVE            0 MByte
 
         TOTAL MEMORY FOR (MU NU/ ALPHA),ALL NODES     29700 MByte
 
 Contributions to RI integral batches: 
  neglected integral batches:      777369
  direct contribution:             282758
  memory contribution:      145001
 Memory core needed for (P|Q) and Cholesky    289 MByte
 Memory core minimum needed except of (P|Q)    15 MByte
 Total minimum memory core needed (sum)       304 MByte
     number of direct tasks:         160
  
 ****************************************
 Memory allocated for RI-J 30004 MByte
 ****************************************
                                            

          ------------------------
          nuclear repulsion energy  :   16569.1327969    
          ------------------------

 
          -----------------
          -S integrals
          -----------------

 1e-integrals will be neglected if expon. factor < 0.674054E-15
 
          -----------------
          -T+V integrals
          -----------------

 1e-integrals will be neglected if expon. factor < 0.674054E-15
 Difference densities >>NOT<< switched on in parallel ridft!

 automatic virtual orbital shift switched on 
      shift if e(lumo)-e(homo) < 0.10000000    


 DIIS switched on: error vector is FDS-SDF
 Max. Iterations for DIIS is     :   4
 DIIS matrix (see manual) 
    Scaling factor of diagonals  :  1.200
    threshold for scaling factor :  0.000

 scf convergence criterion : increment of total energy < .1000000D-08
                  and increment of one-electron energy < .1000000D-05


 <geterg> : there is no data group $energy 

  MOs are in ASCII format !


 reading orbital data $scfmo  from file mos . 

 orbital characterization : scfdump=2
 

 DSCF restart information will be dumped onto file mos


 Starting SCF iterations


 ITERATION  ENERGY          1e-ENERGY        2e-ENERGY     RMS[dD(SAO)]   TOL
   1  -4213.6420112196    -38776.626017     17993.851209    0.000D+00 0.672D-14
                            Exc = -559.676958167     Coul =  18553.5281672    
                              N = 602.00113740    
                            current damping = 0.700
 
          max. resid. norm for Fia-block=  6.682D-02 for orbital    248a         
          max. resid. fock norm         =  7.219D-02 for orbital    660a         

 ITERATION  ENERGY          1e-ENERGY        2e-ENERGY     RMS[dD(SAO)]   TOL
   2  -4214.1242617712    -38796.269686     18013.012628    0.473D-03 0.672D-14
                            Exc = -559.230242757     Coul =  18572.2428703    
                              N = 602.00116796    
                            current damping = 0.650
 
          Norm of current diis error:  2.2875    
          max. resid. norm for Fia-block=  4.454D-02 for orbital    105a         
          max. resid. fock norm         =  1.002D-01 for orbital   4296a         

 ITERATION  ENERGY          1e-ENERGY        2e-ENERGY     RMS[dD(SAO)]   TOL
   3  -4214.3227082185    -38787.584432     18004.128926    0.251D-03 0.672D-14
                            Exc = -560.101590496     Coul =  18564.2305170    
                              N = 602.00111709    
                            current damping = 0.600
 
          Norm of current diis error: 0.99624    
          max. resid. norm for Fia-block=  1.475D-02 for orbital    266a         
          max. resid. fock norm         =  1.898D-02 for orbital    310a         

 ITERATION  ENERGY          1e-ENERGY        2e-ENERGY     RMS[dD(SAO)]   TOL
   4  -4214.3668184644    -38792.442076     18008.942460    0.142D-03 0.672D-14
                            Exc = -559.985338126     Coul =  18568.9277984    
                              N = 602.00114810    
                            current damping = 0.650
 
          Norm of current diis error: 0.39301    
          max. resid. norm for Fia-block=  6.014D-03 for orbital    268a         
          max. resid. fock norm         =  9.277D-03 for orbital   3425a         

 ITERATION  ENERGY          1e-ENERGY        2e-ENERGY     RMS[dD(SAO)]   TOL
   5  -4214.3740469583    -38790.462343     18006.955500    0.634D-04 0.672D-14
                            Exc = -559.877763110     Coul =  18566.8332627    
                              N = 602.00114832    
                            current damping = 0.700
 
          Norm of current diis error: 0.11079    
          max. resid. norm for Fia-block=  2.297D-03 for orbital     97a         
          max. resid. fock norm         =  2.989D-03 for orbital   4298a         
          mo-orthogonalization: Cholesky decomposition

 ITERATION  ENERGY          1e-ENERGY        2e-ENERGY     RMS[dD(SAO)]   TOL
   6  -4214.3746409105    -38791.537456     18008.030018    0.170D-04 0.672D-14
                            Exc = -559.943856642     Coul =  18567.9738750    
                              N = 602.00114824    
                            current damping = 0.750
 
          Norm of current diis error: 0.45444E-01
          max. resid. norm for Fia-block=  8.936D-04 for orbital     98a         
          max. resid. fock norm         =  2.038D-03 for orbital    238a         

 ITERATION  ENERGY          1e-ENERGY        2e-ENERGY     RMS[dD(SAO)]   TOL
   7  -4214.3747100708    -38791.135800     18007.628293    0.940D-05 0.672D-14
                            Exc = -559.946835721     Coul =  18567.5751290    
                              N = 602.00114817    
                            current damping = 0.800
 
          Norm of current diis error: 0.30868E-01
          max. resid. norm for Fia-block=  6.910D-04 for orbital    266a         
          max. resid. fock norm         =  7.309D-04 for orbital    266a         

 ITERATION  ENERGY          1e-ENERGY        2e-ENERGY     RMS[dD(SAO)]   TOL
   8  -4214.3747405462    -38791.286331     18007.778793    0.541D-05 0.672D-14
                            Exc = -559.932927359     Coul =  18567.7117205    
                              N = 602.00114966    
                            current damping = 0.850
 
          Norm of current diis error: 0.21666E-01
          max. resid. norm for Fia-block=  2.631D-04 for orbital    276a         
          max. resid. fock norm         =  4.984D-04 for orbital   4264a         

 ITERATION  ENERGY          1e-ENERGY        2e-ENERGY     RMS[dD(SAO)]   TOL
   9  -4214.3747601991    -38791.244240     18007.736683    0.190D-05 0.672D-14
                            Exc = -559.936284700     Coul =  18567.6729677    
                              N = 602.00114943    
                            current damping = 0.900
 
          Norm of current diis error: 0.75793E-02
          max. resid. norm for Fia-block=  1.464D-04 for orbital     98a         
          max. resid. fock norm         =  2.333D-04 for orbital   4299a         

 ITERATION  ENERGY          1e-ENERGY        2e-ENERGY     RMS[dD(SAO)]   TOL
  10  -4214.3747622146    -38791.317824     18007.810265    0.641D-06 0.672D-14
                            Exc = -559.942317620     Coul =  18567.7525830    
                              N = 602.00114937    
                            current damping = 0.950
 
          Norm of current diis error: 0.32814E-02
          max. resid. norm for Fia-block=  4.332D-05 for orbital    291a         
          max. resid. fock norm         =  8.893D-05 for orbital    237a         
          mo-orthogonalization: Cholesky decomposition

 ITERATION  ENERGY          1e-ENERGY        2e-ENERGY     RMS[dD(SAO)]   TOL
  11  -4214.3747626536    -38791.288888     18007.781328    0.501D-06 0.672D-14
                            Exc = -559.941572582     Coul =  18567.7229009    
                              N = 602.00114937    
                            current damping = 1.000
 
          Norm of current diis error: 0.86477E-03
          max. resid. norm for Fia-block=  1.988D-05 for orbital    260a         
          max. resid. fock norm         =  3.205D-05 for orbital   4216a         

 ITERATION  ENERGY          1e-ENERGY        2e-ENERGY     RMS[dD(SAO)]   TOL
  12  -4214.3747626908    -38791.288163     18007.780603    0.206D-06 0.672D-14
                            Exc = -559.941184371     Coul =  18567.7217877    
                              N = 602.00114941    
                            current damping = 0.850
 
          Norm of current diis error: 0.57948E-03
          max. resid. norm for Fia-block=  1.123D-05 for orbital    277a         
          max. resid. fock norm         =  2.422D-05 for orbital    237a         

 DENSITY CONVERGED !


 ITERATION  ENERGY          1e-ENERGY        2e-ENERGY     RMS[dD(SAO)]   TOL
  13  -4214.3747627057    -38791.287046     18007.779486    0.993D-07 0.672D-14
                            Exc = -559.941285760     Coul =  18567.7207720    
                              N = 602.00114941    
                            current damping = 0.700
 
          Norm of current diis error: 0.29121E-03
          max. resid. norm for Fia-block=  5.885D-06 for orbital     98a         
          max. resid. fock norm         =  1.213D-05 for orbital   4299a         

 DENSITY CONVERGED !


 ITERATION  ENERGY          1e-ENERGY        2e-ENERGY     RMS[dD(SAO)]   TOL
  14  -4214.3747627079    -38791.287808     18007.780249    0.531D-07 0.672D-14
                            Exc = -559.941376705     Coul =  18567.7216254    
                              N = 602.00114942    
                            current damping = 0.750
 
          Norm of current diis error: 0.21746E-03
          max. resid. norm for Fia-block=  3.724D-06 for orbital    278a         
          max. resid. fock norm         =  5.218D-06 for orbital   4078a         

 DENSITY CONVERGED !


 ITERATION  ENERGY          1e-ENERGY        2e-ENERGY     RMS[dD(SAO)]   TOL
  15  -4214.3747627098    -38791.287593     18007.780034    0.301D-07 0.672D-14
                            Exc = -559.941327190     Coul =  18567.7213610    
                              N = 602.00114942    
                            current damping = 0.800
 
          Norm of current diis error: 0.91159E-04
          max. resid. norm for Fia-block=  1.504D-06 for orbital    290a         
          max. resid. fock norm         =  2.717D-06 for orbital   4216a         
          mo-orthogonalization: Cholesky decomposition

 DENSITY CONVERGED !


 ITERATION  ENERGY          1e-ENERGY        2e-ENERGY     RMS[dD(SAO)]   TOL
  16  -4214.3747627102    -38791.287129     18007.779569    0.122D-07 0.672D-14
                            Exc = -559.941309955     Coul =  18567.7208794    
                              N = 602.00114942    
                            current damping = 0.650
 
          Norm of current diis error: 0.35460E-04
          max. resid. norm for Fia-block=  8.599D-07 for orbital    277a         
          max. resid. fock norm         =  1.748D-06 for orbital   4258a         

 DENSITY CONVERGED !


 ITERATION  ENERGY          1e-ENERGY        2e-ENERGY     RMS[dD(SAO)]   TOL
  17  -4214.3747627097    -38791.287330     18007.779771    0.533D-08 0.672D-14
                            Exc = -559.941336262     Coul =  18567.7211069    
                              N = 602.00114942    
                            current damping = 0.700
 
          Norm of current diis error: 0.33212E-04
          max. resid. norm for Fia-block=  4.182D-07 for orbital    277a         
          max. resid. fock norm         =  5.229D-07 for orbital   4266a         

 ENERGY & DENSITY CONVERGED !


 ITERATION  ENERGY          1e-ENERGY        2e-ENERGY     RMS[dD(SAO)]   TOL
  18  -4214.3730712781    -38791.287382     18007.781514    0.302D-08 0.672D-14
                            Exc = -559.939637644     Coul =  18567.7211516    
                              N = 601.99995613    
                            current damping = 0.550
 
          Norm of current diis error: 0.10246E-04
          max. resid. norm for Fia-block=  1.202D-07 for orbital    224a         
          max. resid. fock norm         =  1.530D-07 for orbital   4216a         

 End of SCF iterations

   convergence criteria satisfied after   18 iterations


                  ------------------------------------------ 
                 |  total energy      =  -4214.37307127809  |
                  ------------------------------------------ 
                 :  kinetic energy    =   4190.99260239764  :
                 :  potential energy  =  -8405.36567367574  :
                 :  virial theorem    =      1.99445220713  :
                 :  wavefunction norm =      1.00000000000  :
                  .......................................... 


 <geterg> : there is no data group $energy 


 <skperg> : $end is missing 


 orbitals $scfmo  will be written to file mos

    irrep                297a        298a        299a        300a        301a   
 eigenvalues H         -0.21667    -0.21488    -0.20807    -0.20805    -0.20232
            eV          -5.8960     -5.8473     -5.6619     -5.6613     -5.5056
 occupation              2.0000      2.0000      2.0000      2.0000      2.0000 

    irrep                302a        303a        304a        305a        306a   
 eigenvalues H         -0.02030    -0.01638    -0.01635    -0.00703    -0.00693
            eV          -0.5524     -0.4456     -0.4450     -0.1913     -0.1885
 
 
 ! grave: sending quit signal to master process
 
 
 
 
 ==============================================================================
                           electrostatic moments
 ==============================================================================

 reference point for electrostatic moments:    0.00000   0.00000   0.00000

 
              nuc           elec       ->  total
 ------------------------------------------------------------------------------
                          charge      
 ------------------------------------------------------------------------------
         602.000000    -602.000000      -0.000000
 
 ------------------------------------------------------------------------------
                       dipole moment  
 ------------------------------------------------------------------------------
   x     -12.656752      12.645543      -0.011208
   y       0.983334      -0.983255       0.000079
   z       0.365306      -0.364024       0.001282
 
   | dipole moment | =     0.0113 a.u. =     0.0287 debye 
 
 ------------------------------------------------------------------------------
                     quadrupole moment
 ------------------------------------------------------------------------------
  xx   29900.895855  -30128.749723    -227.853868
  yy   29773.058731  -30000.809928    -227.751197
  zz    7620.137706   -8073.666487    -453.528781
  xy       6.361157      -6.477221      -0.116063
  xz    -492.259099     487.215302      -5.043797
  yz    -431.697051     426.692890      -5.004161
 
     1/3  trace=    -303.044615
     anisotropy=     226.061567
 
 ==============================================================================
 

    ridft profiling
  --------------------------------------------------------------------
             module   cpu total (s)       %  wall total (s)       %

               RIDFT         18156.8  100.00         18282.6  100.00
         Ridft_b_scf           413.6    2.28           414.0    2.26
        b_scf_prelim             0.0    0.00             0.0    0.00
        b_scf_molinp             0.1    0.00             0.1    0.00
         b_scf_init0             0.0    0.00             0.0    0.00
        b_scf_auxbas             0.0    0.00             0.0    0.00
      b_scf_symmetry             0.0    0.00             0.0    0.00
         b_scf_cosmo             0.0    0.00             0.0    0.00
        b_scf_params            10.7    0.06            10.7    0.06
          b_scf_ri-j           303.6    1.67           303.9    1.66
    b_scf_ri-j_auxpq           303.4    1.67           303.7    1.66
     ri-j_auxpq_chol            23.0    0.13            23.0    0.13
         b_scf_1elec             9.1    0.05             9.1    0.05
       b_scf_moinput            90.2    0.50            90.3    0.49
     moinput_orthmos            63.2    0.35            63.2    0.35
    b_scf_dft-dstmax             0.0    0.00             0.0    0.00
           Ridft_scf         17739.4   97.70         17864.3   97.71
          Scf_b_loop             0.0    0.00             0.0    0.00
                noga             0.0    0.00             0.0    0.00
            Scf_loop         17724.7   97.62         17844.6   97.60
     scf_loop_mkdmat            56.3    0.31            56.4    0.31
       scf_loop_ri-j          2818.4   15.52          2821.0   15.43
      parlp1.bc.dens             3.6    0.02             3.6    0.02
        parlp1.gs.gp            45.9    0.25            45.9    0.25
        parlp2.bc.gq             0.0    0.00             0.0    0.00
        scf_loop_dft         12954.8   71.35         12984.1   71.02
      pardft.bc.dens             0.0    0.00             0.0    0.00
        dft_grid_con           114.5    0.63           114.6    0.63
          dft_xcmrhf         12111.9   66.71         12135.7   66.38
          dft_getval           200.1    1.10           200.8    1.10
          funct2 dst             3.9    0.02             4.0    0.02
      funct2 f2loop1            22.5    0.12            22.7    0.12
      funct2 f2loop2           100.0    0.55           100.1    0.55
          funct2 s+c            71.1    0.39            71.4    0.39
        funct2 cmf_2            65.2    0.36            65.5    0.36
          dft_mkdens          7082.3   39.01          7097.4   38.82
        dft_mgga-fun             4.8    0.03             5.1    0.03
          dft_mkfock          4822.1   26.56          4830.3   26.42
     pardft.red.fock          1817.6   10.01          1825.9    9.99
     scf_loop_energy             0.8    0.00             0.8    0.00
     scf_loop_mkfock             1.4    0.01             1.4    0.01
       scf_loop_diis           668.6    3.68           669.4    3.66
       scf_loop_diag           832.9    4.59           834.8    4.57
         diag_tritrn           324.9    1.79           325.5    1.78
          diag_rdiag           506.1    2.79           507.4    2.78
     scf_loop_modump           223.6    1.23           308.6    1.69
      scf_loop_ortho           159.9    0.88           160.2    0.88
          Scf_a_loop            14.7    0.08            19.7    0.11
         Ridft_a_scf             3.8    0.02             4.4    0.02
         a_scf_fanal             3.6    0.02             3.7    0.02
 


    ------------------------------------------------------------------------
         total  cpu-time :  5 hours  2 minutes and 56 seconds
         total wall-time :  5 hours  5 minutes and  2 seconds
    ------------------------------------------------------------------------


   ****  ridft : all done  ****


    2017-11-08 05:07:04.240 

