Using Slurm to start processes with PMI2
Parallel program ridft_mpi will be taken out of the TURBODIR directory.
STARTING ridft ON 8 PROCESSORS!
RUNNING PROGRAM /modfac/apps/TURBOMOLE/7.0_intel_GA/bin/em64t-unknown-linux-gnu_ga/ridft_mpi.
PLEASE WAIT UNTIL ridft HAS FINISHED.
Look for the output in slave1.output.
 <<<<<<<<<<<<<<< OUTPUT FROM PROCESS                      0 >>>>>>>>>>>>>>>
 distribution of control by ridft_mpi/rdgrad_mpi
 operating system is UNIX !
 hostname is         c-4-6.local

 ridft (c-4-6.local) : TURBOMOLE V7.0.2( ) 15 Jan 2016 at 16:16:51
 Copyright (C) 2016 TURBOMOLE GmbH, Karlsruhe


    2016-01-28 01:32:58.287 



                                  r i d f t

                        DFT program with RI approximation 
                                for coulomb part 




                                                 
                                 References:     
                                                 
          TURBOMOLE:                             
              R. Ahlrichs, M. Baer, M. Haeser, H. Horn, and
              C. Koelmel
              Electronic structure calculations on workstation
              computers: the program system TURBOMOLE
              Chem. Phys. Lett. 162: 165 (1989)
          Density Functional:                              
              O. Treutler and R. Ahlrichs                      
              Efficient Molecular Numerical Integration Schemes
              J. Chem. Phys. 102: 346 (1995)                   
          Parallel Version:                                
              Performance of parallel TURBOMOLE for Density    
              Functional Calculations                          
              M. v. Arnim and R. Ahlrichs                      
              J. Comp. Chem. 19: 1746 (1998)                   
          RI-J Method:                                     
              Auxiliary Basis Sets to approximate Coulomb      
              Potentials                                       
              Chem. Phys. Lett. 240: 283 (1995)                
              K. Eichkorn, O. Treutler, H. Oehm, M. Haeser     
              and R. Ahlrichs                                  
              Chem. Phys. Lett. 242: 652 (1995)                
                                                           
              Auxiliary Basis Sets for Main Row Atoms and their
              Use to approximate Coulomb Potentials            
              K. Eichkorn, F. Weigend, O. Treutler and         
              R. Ahlrichs                                      
              Theo. Chem. Acc. 97: 119 (1997)                   
                                                           
              Accurate Coulomb-fitting basis sets for H to Rn 
              F. Weigend                                        
              Phys. Chem. Chem. Phys. 8: 1057 (2006)            
                                                           
          Multipole accelerated RI-J (MARI-J):             
              Fast evaluation of the Coulomb potential for     
              electron densities using multipole accelerated   
              resolution of identity approximation             
              M. Sierka, A. Hogekamp and R. Ahlrichs           
              J. Chem. Phys. 118: 9136 (2003)                  
          RI-JK Method:                                     
              A fully direct RI-HF algorithm: Implementation,
              optimised auxiliary basis sets, demonstration of
              accuracy and efficiency                         
              F. Weigend                                      
              Phys. Chem. Chem. Phys. 4: 4285 (2002)           
          Two-component HF and DFT with spin-orbit coupling:  
              Self-consistent treatment of spin-orbit         
              interactions with efficient Hartree-Fock and    
              density functional methods                      
              M. K. Armbruster, F. Weigend, C. van Wüllen and 
              W. Klopper                                      
              Phys. Chem. Chem. Phys. 10: 1748 (2008)         
          Relativistic all-electron 2c calculations           
              An efficient implementation of two-component    
              relativistic exact-decoupling methods for large 
              molecules                                       
              D. Peng, N. Middendorf, F. Weigend, M. Reiher   
              J. Chem. Phys. 138, 184105 (2013)               
                                         


 Default GA heap smaller than $ricore!
GA heap raised to: 327680000
 par_setmem:              327680000                131072 F
 MA:  Allocated stack:    1.000000      MB/processor
 SHM: Allocated heap :    2500.000      MB/processor
 ********** GlobalArray OPTION SETTINGS : **********
 distributed memory heap/proc      =    327680000
 distributed memory stack/proc     =       131072
 *****************************************************
  Distributing input file(s)
 


              +--------------------------------------------------+
              |      general information about current run       |
              +--------------------------------------------------+

 

 SCF run will be profiled !

 DENSITY CONVERGENCE CHECK UNAVAILABLE IN GA VERSION!
 PBE functional
 exchange:    LDA + PBE
 correlation: LDA (PW) + PBE
 A DFT calculation using the RI-J approximation will be carried out.
 Allocatable memory for RI due to $ricore (MB):        2000


              +--------------------------------------------------+
              | Atomic coordinate, charge and isotop information |
              +--------------------------------------------------+

                    atomic coordinates            atom    charge  isotop
         -2.41548766   -1.27832307    0.22817140    c      6.000     0
          2.41548766    1.27832307    0.22817140    c      6.000     0
          2.17103434   -1.41127114   -0.33113812    n      7.000     0
         -2.17103434    1.41127114   -0.33113812    n      7.000     0
         -0.00334869    2.78617917   -0.18601109    c      6.000     0
          0.00334869   -2.78617917   -0.18601109    c      6.000     0
          0.06087831    5.09385517   -0.37182255    o      8.000     0
         -0.06087831   -5.09385517   -0.37182255    o      8.000     0
         -3.77129674    2.44916265   -0.52981132    h      1.000     0
          3.77129674   -2.44916265   -0.52981132    h      1.000     0
         -3.85018467   -2.10927278   -1.00190138    h      1.000     0
          3.85018467    2.10927278   -1.00190138    h      1.000     0
         -3.01757043   -1.59441444    2.19251306    h      1.000     0
          3.01757043    1.59441444    2.19251306    h      1.000     0
 
       center of nuclear mass  :    0.00000000    0.00000000   -0.16501750
       center of nuclear charge:    0.00000000    0.00000000   -0.14595950

              +--------------------------------------------------+
              |               basis set information              |
              +--------------------------------------------------+

              we will work with the 1s 3p 5d 7f 9g ... basis set
              ...i.e. with spherical basis functions...

   type   atoms  prim   cont   basis
   ---------------------------------------------------------------------------
    c        4     50     30   cc-pVTZ   [4s3p2d1f|18s5p2d1f]
    n        2     50     30   cc-pVTZ   [4s3p2d1f|18s5p2d1f]
    o        2     50     30   cc-pVTZ   [4s3p2d1f|18s5p2d1f]
    h        6     16     14   cc-pVTZ   [3s2p1d|5s2p1d]
   ---------------------------------------------------------------------------
   total:   14    496    324
   ---------------------------------------------------------------------------

   total number of primitive shells          :   86
   total number of contracted shells         :  116
   total number of cartesian basis functions :  370
   total number of SCF-basis functions       :  324


 integral neglect threshold       :  0.90E-13
 integral storage threshold THIZE :  0.10E-04
 integral storage threshold THIME :         5

 RI-J AUXILIARY BASIS SET information:

              we will work with the 1s 3p 5d 7f 9g ... basis set
              ...i.e. with spherical basis functions...

   type   atoms  prim   cont   basis
   ---------------------------------------------------------------------------
    c        4     70     49   cc-pVTZ   [6s4p3d1f1g|12s5p4d2f1g]
    n        2     70     49   cc-pVTZ   [6s4p3d1f1g|12s5p4d2f1g]
    o        2     70     49   cc-pVTZ   [6s4p3d1f1g|12s5p4d2f1g]
    h        6     16     11   cc-pVTZ   [3s1p1d|5s2p1d]
   ---------------------------------------------------------------------------
   total:   14    656    458
   ---------------------------------------------------------------------------

   total number of primitive shells          :   80
   total number of contracted shells         :  150
   total number of cartesian basis functions :  560
   total number of SCF-basis functions       :  458


 symmetry group of the molecule :   c1 

 the group has the following generators :
   c1(z)

    1 symmetry operations found

 there are 1 real representations :   a   

 maximum number of shells which are related by symmetry :  1


    mo occupation :
   irrep   mo's   occupied
    a      324       30
 
 number of basis functions   :          324
 number of occupied orbitals :           30
 
  
           ------------------
           density functional
           ------------------
 PBE functional
 exchange:    LDA + PBE
 correlation: LDA (PW) + PBE
 grinp -> nfun, dfgga, dfhybrid 
           6 T F
 iterations will be done with small grid
  
 spherical integration : Lebedev's spherical grid
 spherical gridsize    :           5
    i.e. gridpoints    :         590
 value for diffuse not defined
 radial integration    : Chebyshev 2nd kind (scaling 3)
 radial gridsize       :           8
 integration cells     :          14
 partition function    : becke
 partition sharpness   :           3
  

 biggest AO integral is expected to be     4.866064444
  
           ------------------------
               RI-J - INFORMATION
           ------------------------
 Memory core needed for (P|Q) and Cholesky      1 MByte on GA
 Memory core minimum needed except           1 MByte 
  
 ****************************************
 Memory allocated for RI-J 1 MByte
 plus additional 352 MByte (integrals) (GA)
 plus additional 1 MByte (pqmatrix)  (GA)
 ****************************************
                                            

          ------------------------
          nuclear repulsion energy  :   373.465409978    
          ------------------------

 
          -----------------
          -S,T+V- integrals
          -----------------

 1e-integrals will be neglected if expon. factor < 0.903233E-14
 
   Difference densities algorithm switched on.
   The maximal number of linear combinations of
   difference densities is          20 .

 automatic virtual orbital shift switched on 
      shift if e(lumo)-e(homo) < 0.10000000    


 DIIS switched on: error vector is FDS-SDF
 Max. Iterations for DIIS is     :   4
 DIIS matrix (see manual) 
    Scaling factor of diagonals  :  1.200
    threshold for scaling factor :  0.000

 scf convergence criterion : increment of total energy < .1000000D-08
                  and increment of one-electron energy < .1000000D-05


 <geterg> : there is no data group $energy 

  MOs are in ASCII format !


 reading orbital data $scfmo  from file mos . 

 orbital characterization : expanded
 
 stacho: isym= 1 dev_max=0.133709E-10 threshold=0.100000E-09
 mo provided and orthogonalized by Cholesky decomposition

 DSCF restart information will be dumped onto file mos


 Starting SCF iterations

 non-zero weights=       70354
          Overall gridpoints after grid construction =         70354

 ITERATION  ENERGY          1e-ENERGY        2e-ENERGY     NORM[dD(SAO)]  TOL
   1  -413.81711305124    -1296.8676321     509.58510907    0.000D+00 0.901D-13
                            Exc = -54.3229502989     Coul =  563.908059373    
                              N = 60.000027400    
                            current damping = 0.700
 
          max. resid. norm for Fia-block=  3.978D-01 for orbital     20a         
          max. resid. fock norm         =  4.505D+00 for orbital    297a         

 ITERATION  ENERGY          1e-ENERGY        2e-ENERGY     NORM[dD(SAO)]  TOL
   2  -415.40626062509    -1302.9732526     514.10158199    0.100D+01 0.593D-13
                            Exc = -54.2121711900     Coul =  568.313753185    
                              N = 60.000023365    
                            current damping = 0.650
 
          Norm of current diis error:  2.2291    
          max. resid. norm for Fia-block=  1.532D-01 for orbital      1a         
          max. resid. fock norm         =  3.534D-01 for orbital    323a         

 ITERATION  ENERGY          1e-ENERGY        2e-ENERGY     NORM[dD(SAO)]  TOL
   3  -415.62228725916    -1305.6446845     516.55698725    0.579D+00 0.454D-13
                            Exc = -54.4880166461     Coul =  571.045003899    
                              N = 60.000020678    
                            current damping = 0.550
 
          Norm of current diis error:  1.0334    
          max. resid. norm for Fia-block=  6.342D-02 for orbital      1a         
          max. resid. fock norm         =  8.047D-02 for orbital    318a         

 ITERATION  ENERGY          1e-ENERGY        2e-ENERGY     NORM[dD(SAO)]  TOL
   4  -415.68118420889    -1305.7563570     516.60976285    0.405D+00 0.376D-13
                            Exc = -54.4180024411     Coul =  571.027765288    
                              N = 60.000020027    
                            current damping = 0.400
 
          Norm of current diis error: 0.47034    
          max. resid. norm for Fia-block=  3.101D-02 for orbital     10a         
          max. resid. fock norm         =  6.195D-02 for orbital    303a         

 ITERATION  ENERGY          1e-ENERGY        2e-ENERGY     NORM[dD(SAO)]  TOL
   5  -415.68862656753    -1306.1894782     517.03544164    0.162D+00 0.353D-13
                            Exc = -54.5189310963     Coul =  571.554372732    
                              N = 60.000020174    
                            current damping = 0.250
 
          Norm of current diis error: 0.35319    
          max. resid. norm for Fia-block=  1.065D-02 for orbital     29a         
          max. resid. fock norm         =  1.286D-02 for orbital    324a         
          mo-orthogonalization: Cholesky decomposition

 ITERATION  ENERGY          1e-ENERGY        2e-ENERGY     NORM[dD(SAO)]  TOL
   6  -415.69448321946    -1306.5288260     517.36893280    0.579D-01 0.335D-13
                            Exc = -54.5170678522     Coul =  571.886000653    
                              N = 60.000019784    
                            current damping = 0.100
 
          Norm of current diis error: 0.10987    
          max. resid. norm for Fia-block=  4.512D-03 for orbital     27a         
          max. resid. fock norm         =  5.622D-03 for orbital     27a         

 ITERATION  ENERGY          1e-ENERGY        2e-ENERGY     NORM[dD(SAO)]  TOL
   7  -415.69480240294    -1306.1927438     517.03253147    0.212D-01 0.328D-13
                            Exc = -54.4854686476     Coul =  571.518000113    
                              N = 60.000019994    
                            current damping = 0.150
 
          Norm of current diis error: 0.67720E-01
          max. resid. norm for Fia-block=  1.886D-03 for orbital     24a         
          max. resid. fock norm         =  2.396D-03 for orbital    318a         

 ITERATION  ENERGY          1e-ENERGY        2e-ENERGY     NORM[dD(SAO)]  TOL
   8  -415.69496921115    -1306.3262260     517.16584679    0.454D-02 0.327D-13
                            Exc = -54.5053155818     Coul =  571.671162376    
                              N = 60.000019959    
                            current damping = 0.200
 
          Norm of current diis error: 0.20264E-01
          max. resid. norm for Fia-block=  5.798D-04 for orbital     26a         
          max. resid. fock norm         =  8.522D-04 for orbital     23a         

 ITERATION  ENERGY          1e-ENERGY        2e-ENERGY     NORM[dD(SAO)]  TOL
   9  -415.69498474881    -1306.3682021     517.20780739    0.204D-02 0.326D-13
                            Exc = -54.5051713846     Coul =  571.712978779    
                              N = 60.000019933    
                            current damping = 0.050
 
          Norm of current diis error: 0.80434E-02
          max. resid. norm for Fia-block=  2.418D-04 for orbital     21a         
          max. resid. fock norm         =  3.507D-04 for orbital     50a         

 ITERATION  ENERGY          1e-ENERGY        2e-ENERGY     NORM[dD(SAO)]  TOL
  10  -415.69498587034    -1306.3328647     517.17246889    0.398D-03 0.325D-13
                            Exc = -54.5028164036     Coul =  571.675285296    
                              N = 60.000019938    
                            current damping = 0.100
 
          Norm of current diis error: 0.50989E-02
          max. resid. norm for Fia-block=  1.570D-04 for orbital     28a         
          max. resid. fock norm         =  2.258D-04 for orbital    320a         
          mo-orthogonalization: Cholesky decomposition

 ITERATION  ENERGY          1e-ENERGY        2e-ENERGY     NORM[dD(SAO)]  TOL
  11  -415.69498706687    -1306.3433974     517.18300035    0.390D-04 0.324D-13
                            Exc = -54.5040453757     Coul =  571.687045728    
                              N = 60.000019941    
                            current damping = 0.150
 
          Norm of current diis error: 0.14978E-02
          max. resid. norm for Fia-block=  4.304D-05 for orbital     27a         
          max. resid. fock norm         =  6.850D-05 for orbital    320a         

 ITERATION  ENERGY          1e-ENERGY        2e-ENERGY     NORM[dD(SAO)]  TOL
  12  -415.69498715436    -1306.3449926     517.18459546    0.300D-04 0.323D-13
                            Exc = -54.5040351321     Coul =  571.688630591    
                              N = 60.000019939    
                            current damping = 0.050
 
          Norm of current diis error: 0.63206E-03
          max. resid. norm for Fia-block=  2.141D-05 for orbital     16a         
          max. resid. fock norm         =  2.660D-05 for orbital    324a         

 ITERATION  ENERGY          1e-ENERGY        2e-ENERGY     NORM[dD(SAO)]  TOL
  13  -415.69498716255    -1306.3431921     517.18279501    0.377D-05 0.321D-13
                            Exc = -54.5038394290     Coul =  571.686634436    
                              N = 60.000019940    
                            current damping = 0.100
 
          Norm of current diis error: 0.39974E-03
          max. resid. norm for Fia-block=  1.066D-05 for orbital     24a         
          max. resid. fock norm         =  1.294D-05 for orbital    323a         

 ITERATION  ENERGY          1e-ENERGY        2e-ENERGY     NORM[dD(SAO)]  TOL
  14  -415.69498716888    -1306.3438554     517.18345827    0.154D-05 0.320D-13
                            Exc = -54.5039510206     Coul =  571.687409288    
                              N = 60.000019940    
                            current damping = 0.150
 
          Norm of current diis error: 0.85517E-04
          max. resid. norm for Fia-block=  2.201D-06 for orbital     24a         
          max. resid. fock norm         =  3.012D-06 for orbital    323a         

 ITERATION  ENERGY          1e-ENERGY        2e-ENERGY     NORM[dD(SAO)]  TOL
  15  -415.69498716913    -1306.3439780     517.18358081    0.519D-06 0.320D-13
                            Exc = -54.5039449266     Coul =  571.687525738    
                              N = 60.000019940    
                            current damping = 0.050
 
          Norm of current diis error: 0.33356E-04
          max. resid. norm for Fia-block=  9.983D-07 for orbital     16a         
          max. resid. fock norm         =  1.523D-06 for orbital     15a         
          mo-orthogonalization: Cholesky decomposition

 ITERATION  ENERGY          1e-ENERGY        2e-ENERGY     NORM[dD(SAO)]  TOL
  16  -415.69498716914    -1306.3438391     517.18344198    0.126D-06 0.319D-13
                            Exc = -54.5039353388     Coul =  571.687377316    
                              N = 60.000019940    
                            current damping = 0.100
 
          Norm of current diis error: 0.23992E-04
          max. resid. norm for Fia-block=  7.507D-07 for orbital     28a         
          max. resid. fock norm         =  1.113D-06 for orbital    320a         

 ITERATION  ENERGY          1e-ENERGY        2e-ENERGY     NORM[dD(SAO)]  TOL
  17  -415.69498716917    -1306.3438804     517.18348329    0.484D-07 0.318D-13
                            Exc = -54.5039408233     Coul =  571.687424110    
                              N = 60.000019940    
                            current damping = 0.150
 
          Norm of current diis error: 0.82593E-05
          max. resid. norm for Fia-block=  2.478D-07 for orbital     27a         
          max. resid. fock norm         =  3.474D-07 for orbital    320a         

 ITERATION  ENERGY          1e-ENERGY        2e-ENERGY     NORM[dD(SAO)]  TOL
  18  -415.69498716917    -1306.3438965     517.18349939    0.145D-07 0.318D-13
                            Exc = -54.5039414319     Coul =  571.687440823    
                              N = 60.000019940    
                            current damping = 0.050
 
          Norm of current diis error: 0.33907E-05
          max. resid. norm for Fia-block=  1.087D-07 for orbital     27a         
          max. resid. fock norm         =  1.316D-07 for orbital    322a         

 ITERATION  ENERGY          1e-ENERGY        2e-ENERGY     NORM[dD(SAO)]  TOL
  19  -415.69498716917    -1306.3438851     517.18348797    0.307D-08 0.317D-13
                            Exc = -54.5039402565     Coul =  571.687428227    
                              N = 60.000019940    
                            current damping = 0.100
 
          Norm of current diis error: 0.17939E-05
          max. resid. norm for Fia-block=  4.066D-08 for orbital     24a         
          max. resid. fock norm         =  5.225D-08 for orbital    323a         

 ENERGY CONVERGED !

 non-zero weights=      224646
          Overall gridpoints after grid construction =        224646

 ITERATION  ENERGY          1e-ENERGY        2e-ENERGY     NORM[dD(SAO)]  TOL
  20  -415.69499531839    -1306.3438870     517.18348171    0.730D-09 0.316D-13
                            Exc = -54.5039487921     Coul =  571.687430505    
                              N = 60.000003131    
                            current damping = 0.150
 
          Norm of current diis error: 0.40354E-06
          max. resid. norm for Fia-block=  1.076D-08 for orbital     16a         
          max. resid. fock norm         =  1.442D-08 for orbital     65a         

 End of SCF iterations

   convergence criteria satisfied after   20 iterations


                  ------------------------------------------ 
                 |  total energy      =   -415.69499531839  |
                  ------------------------------------------ 
                 :  kinetic energy    =    413.08579873138  :
                 :  potential energy  =   -828.78079404977  :
                 :  virial theorem    =      1.99372329083  :
                 :  wavefunction norm =      1.00000000000  :
                  .......................................... 


 <geterg> : there is no data group $energy 


 <skperg> : $end is missing 


 orbitals $scfmo  will be written to file mos

    irrep                 26a         27a         28a         29a         30a   
 eigenvalues H         -0.32357    -0.24470    -0.23686    -0.22395    -0.21483
            eV          -8.8049     -6.6587     -6.4454     -6.0940     -5.8459
 occupation              2.0000      2.0000      2.0000      2.0000      2.0000 

    irrep                 31a         32a         33a         34a         35a   
 eigenvalues H         -0.03391    -0.02711    -0.00599     0.02067     0.04220
            eV          -0.9227     -0.7377     -0.1631      0.5625      1.1484
 
 
 
 
 ==============================================================================
                           electrostatic moments
 ==============================================================================

 reference point for electrostatic moments:    0.00000   0.00000   0.00000

 
              nuc           elec       ->  total
 ------------------------------------------------------------------------------
                          charge      
 ------------------------------------------------------------------------------
          60.000000     -60.000000       0.000000
 
 ------------------------------------------------------------------------------
                       dipole moment  
 ------------------------------------------------------------------------------
   x       0.000000      -0.000000      -0.000000
   y       0.000000      -0.000000      -0.000000
   z      -8.757570       9.059742       0.302171
 
   | dipole moment | =     0.3022 a.u. =     0.7680 debye 
 
 ------------------------------------------------------------------------------
                     quadrupole moment
 ------------------------------------------------------------------------------
  xx     212.366528    -238.564710     -26.198183
  yy     581.783399    -632.659946     -50.876546
  zz      16.970354     -50.726664     -33.756310
  xy       6.399811      -7.785282      -1.385471
  xz       0.000000       0.000000       0.000000
  yz       0.000000       0.000000       0.000000
 
     1/3  trace=     -36.943680
     anisotropy=      22.031416
 
 ==============================================================================
 

    ridft profiling
  --------------------------------------------------------------------
             module   cpu total (s)       %  wall total (s)       %

               RIDFT            17.6  100.00            16.0  100.00
         Ridft_b_scf             0.9    5.15             0.7    4.38
        b_scf_prelim             0.0    0.01             0.0    0.01
        b_scf_molinp             0.0    0.05             0.0    0.07
         b_scf_init0             0.0    0.01             0.0    0.01
        b_scf_auxbas             0.0    0.04             0.0    0.05
      b_scf_symmetry             0.0    0.05             0.0    0.16
         b_scf_cosmo             0.0    0.01             0.0    0.00
        b_scf_params             0.0    0.15             0.0    0.20
          b_scf_ri-j             0.7    4.07             0.5    3.30
    b_scf_ri-j_auxpq             0.5    3.02             0.3    2.16
     ri-j_auxpq_chol             0.4    2.34             0.2    1.40
         b_scf_1elec             0.0    0.10             0.0    0.14
       b_scf_moinput             0.1    0.68             0.1    0.44
     moinput_orthmos             0.1    0.63             0.1    0.39
    b_scf_dft-dstmax             0.0    0.00             0.0    0.00
           Ridft_scf            16.7   94.75            15.3   95.50
          Scf_b_loop             0.0    0.02             0.0    0.03
                noga             0.0    0.00             0.0    0.00
            Scf_loop            16.6   94.41            15.2   95.08
     scf_loop_mkdmat             0.1    0.36             0.1    0.43
       scf_loop_ri-j             0.7    3.95             0.7    4.37
    ri-j_near_lpdrc1             0.1    0.78             0.1    0.79
    ri-j_near_lpdrc2             0.1    0.73             0.1    0.76
        scf_loop_dft            12.5   70.98            12.5   78.29
        dft_grid_con             0.2    1.08             0.2    1.21
           dft_xcrhf            11.9   67.66            11.9   74.63
          dft_getval             1.8   10.26             1.8   11.09
          funct2 dst             0.0    0.21             0.0    0.25
      funct2 f2loop1             0.4    2.39             0.4    2.25
      funct2 f2loop2             0.8    4.27             0.8    4.95
          funct2 s+c             0.5    2.84             0.5    3.09
        funct2 cmf_2             0.4    2.41             0.4    2.68
          dft_mkdens             4.5   25.80             4.5   28.44
         dft_gga-fun             0.1    0.37             0.1    0.42
          dft_mkfock             5.4   30.80             5.5   34.28
     scf_loop_energy             0.0    0.03             0.0    0.03
     scf_loop_mkfock             0.0    0.02             0.0    0.01
       scf_loop_diis             0.6    3.17             0.3    1.94
       scf_loop_diag             2.6   14.53             1.4    8.94
     scf_loop_modump             0.0    0.00             0.0    0.00
      scf_loop_ortho             0.1    0.79             0.1    0.45
          Scf_a_loop             0.1    0.32             0.1    0.36
         Ridft_a_scf             0.0    0.10             0.0    0.13
         a_scf_fanal             0.0    0.10             0.0    0.12
 


    ------------------------------------------------------------------------
         total  cpu-time :  17.70 seconds
         total wall-time :  16.07 seconds
    ------------------------------------------------------------------------


   ****  ridft : all done  ****


    2016-01-28 01:33:14.357 

