STARTING dscf ON 16 PROCESSORS!
RUNNING PROGRAM /beegfs/modfac/apps/TURBOMOLE/7.2.1-official/bin/em64t-unknown-linux-gnu_mpi/dscf_mpi.
PLEASE WAIT UNTIL dscf HAS FINISHED.
Look for the output in slave1.output.
MACHINEFILE is ./hostlist
 this is node-proc. number 1 running on node c-16-38.local
 the total number of node-proc. spawned is  17
  parallel platform: MPP or cluster with fast interconnect

 dscf (c-16-38.local) : TURBOMOLE V7.2 ( 21471 ) 7 Nov 2017 at 16:15:16
 Copyright (C) 2017 TURBOMOLE GmbH, Karlsruhe


    2018-02-14 09:48:33.845 


 SCF run will be profiled !



                             d s c f - program

                   idea & directorship : reinhart ahlrichs
                   program development : marco haeser
                                         michael baer
                           dft version : oliver treutler
           parallelized version : malte v. arnim, gina corongiu, GMD 


                          quantum chemistry group
                          universitaet  karlsruhe
                                  germany




                          References             
                                                 
          TURBOMOLE:                             
              R. Ahlrichs, M. Baer, M. Haeser, H. Horn, and
              C. Koelmel
              Electronic structure calculations on workstation
              computers: the program system TURBOMOLE
              Chem. Phys. Lett. 162: 165 (1989)
          Density Functional:                              
              O. Treutler and R. Ahlrichs                      
              Efficient Molecular Numerical Integration Schemes
              J. Chem. Phys. 102: 346 (1995)                   
          Parallel Version:                                
              Performance of parallel TURBOMOLE for Density    
              Functional Calculations                          
              M. v. Arnim and R. Ahlrichs                      
              J. Comp. Chem. 19: 1746 (1998)                   
                                         




              +--------------------------------------------------+
              | Atomic coordinate, charge and isotop information |
              +--------------------------------------------------+

                    atomic coordinates            atom    charge  isotop
         -3.57283331    3.24299184   -0.15827173    c      6.000     0
          1.00856622   -4.71638209   -0.15583984    c      6.000     0
         -2.94799257    7.23864510    0.11275504    c      6.000     0
          4.77719083   -6.18247006    0.11686670    c      6.000     0
         -5.58926939    6.89958026   -0.15631114    c      6.000     0
          3.15746775   -8.29657739   -0.14931160    c      6.000     0
         -5.92907236    4.29671703   -0.32640103    n      7.000     0
          0.73603013   -7.28341611   -0.32066099    n      7.000     0
         -3.25948915    0.64265291   -0.26666585    n      7.000     0
         -1.08248494   -3.13911663   -0.26618491    n      7.000     0
         -0.99192341   -0.56961840   -0.11902949    c      6.000     0
          6.65969787  -11.08114419    0.02631368    c      6.000     0
         -6.23830599   11.32669084    0.01551635    c      6.000     0
         -3.61672125   11.69457703    0.28415262    c      6.000     0
          8.29444427   -8.99860984    0.29238332    c      6.000     0
          7.38561400   -6.52662469    0.34204475    c      6.000     0
         -1.93565200    9.66717638    0.33705266    c      6.000     0
         -7.28144021    8.91479634   -0.21084523    c      6.000     0
          4.05017034  -10.77205683   -0.20056474    c      6.000     0
          1.13640997    0.65666769    0.14679694    n      7.000     0
         -1.73460991    4.89873517    0.10433177    n      7.000     0
          3.36329236   -3.95800784    0.10536243    n      7.000     0
          1.11692992    2.59548951    0.25061036    h      1.000     0
          2.80711293   -0.32787842    0.25030573    h      1.000     0
         -2.79711005   -3.96416268   -0.47181658    h      1.000     0
         -4.83427170   -0.42556497   -0.47152726    h      1.000     0
         -7.59069179    3.37215329   -0.53420702    h      1.000     0
         -0.89809190   -8.25647306   -0.52493753    h      1.000     0
         -2.89155175   13.60685009    0.45387099    h      1.000     0
         10.31225645   -9.33173773    0.46264914    h      1.000     0
          7.44671168  -12.97611134   -0.00341681    h      1.000     0
         -7.48161227   12.95893373   -0.01673201    h      1.000     0
          8.64176041   -4.91798883    0.54712764    h      1.000     0
          0.08613843    9.94561276    0.54363014    h      1.000     0
          2.79211456  -12.37911194   -0.40551762    h      1.000     0
         -9.30274858    8.63396642   -0.41766440    h      1.000     0
          6.20396475    3.51081741    0.78413556    cl    17.000     0
 
       center of nuclear mass  :    0.48952087    0.27664009    0.06239990
       center of nuclear charge:    0.43787623    0.24743144    0.05582468

              +--------------------------------------------------+
              |               basis set information              |
              +--------------------------------------------------+

              we will work with the 1s 3p 5d 7f 9g ... basis set
              ...i.e. with spherical basis functions...

   type   atoms  prim   cont   basis
   ---------------------------------------------------------------------------
    c       15     77     57   def2-QZVP   [7s4p3d2f1g|15s8p3d2f1g]
    n        7     77     57   def2-QZVP   [7s4p3d2f1g|15s8p3d2f1g]
    h       14     33     30   def2-QZVP   [4s3p2d1f|7s3p2d1f]
    cl       1    105     70   def2-QZVP   [9s6p4d2f1g|20s14p4d2f1g]
   ---------------------------------------------------------------------------
   total:   37   2261   1744
   ---------------------------------------------------------------------------

   total number of primitive shells          :  112
   total number of contracted shells         :  536
   total number of cartesian basis functions : 2160
   total number of SCF-basis functions       : 1744


 integral neglect threshold       :  0.15E-13
 integral storage threshold THIZE :  0.10E-04
 integral storage threshold THIME :         5


 DENSITY CONVERGENCE CHECK SWITCHED ON !
 SCF CONVERGENCE IF RMS(delta[D]) <     0.1000000000E-06


 symmetry group of the molecule :   c1 

 the group has the following generators :
   c1(z)

    1 symmetry operations found

 there are 1 real representations :   a   

 maximum number of shells which are related by symmetry :  1


    mo occupation :
   irrep   mo's   occupied
    a     1744       85
 
 number of basis functions   :                   1744
 number of occupied orbitals :                     85
 

 automatic virtual orbital shift switched on 
      shift if e(lumo)-e(homo) < 0.10000000    


 keyword $2e-ints_shell_statistics missing in file <control>

 ! One task per shell generated
  No pre-computed optimal task distribution found
  ... using automatic task generation

          ------------------------
          nuclear repulsion energy  :   1841.02158293    
          ------------------------


         -----------------
         -S,T+V- integrals
         -----------------

 1e-integrals will be neglected if expon. factor < 0.154720E-14
 
   Difference densities algorithm switched on.
   The maximal number of linear combinations of
   difference densities is                    20 .

 DIIS switched on: error vector is FDS-SDF
 Max. Iterations for DIIS is     :   5
 DIIS matrix (see manual) 
    Scaling factor of diagonals  :  1.200
    threshold for scaling factor :  0.000

 scf convergence criterion : increment of total energy < .1000000D-08
                  and increment of one-electron energy < .1000000D-05

  MOs are in ASCII format !


 reading orbital data $scfmo  from file mos
 orbital characterization : scfconv=9

 DSCF restart information will be dumped onto file mos

 
                                              current damping :  0.300
 ITERATION  ENERGY          1e-ENERGY        2e-ENERGY     RMS[dD(SAO)]   TOL
   1  -1417.2429056028    -5595.2792655     2337.0147770    0.000D+00 0.154D-13
          max. resid. norm for Fia-block=  5.162D-04 for orbital     81a         
          max. resid. fock norm         =  1.025D-02 for orbital    852a         
          Delta Eig. =     4.4286210149 eV 
 
                                              current damping :  0.250
 ITERATION  ENERGY          1e-ENERGY        2e-ENERGY     RMS[dD(SAO)]   TOL
   2  -1417.2429076611    -5595.2828533     2337.0183627    0.610D-05 0.978D-14
          Norm of current diis error: 0.31432E-02
          max. resid. norm for Fia-block=  1.508D-04 for orbital     59a         
          max. resid. fock norm         =  2.373D-03 for orbital    854a         
          Delta Eig. =     1.0629413119 eV 
 
                                              current damping :  0.200
 ITERATION  ENERGY          1e-ENERGY        2e-ENERGY     RMS[dD(SAO)]   TOL
   3  -1417.2429078383    -5595.2815731     2337.0170823    0.196D-05 0.776D-14
          Norm of current diis error: 0.75351E-03
          max. resid. norm for Fia-block=  3.429D-05 for orbital     59a         
          max. resid. fock norm         =  4.696D-04 for orbital    854a         
          Delta Eig. =     0.2211997453 eV 
 
                                              current damping :  0.250
 ITERATION  ENERGY          1e-ENERGY        2e-ENERGY     RMS[dD(SAO)]   TOL
   4  -1417.2429078486    -5595.2823151     2337.0178243    0.475D-06 0.687D-14
          Norm of current diis error: 0.15443E-03
          max. resid. norm for Fia-block=  5.964D-06 for orbital     72a         
          max. resid. fock norm         =  7.962D-05 for orbital    854a         
          Delta Eig. =     0.0355359895 eV 

 DENSITY CONVERGED !

 
                                              current damping :  0.300
 ITERATION  ENERGY          1e-ENERGY        2e-ENERGY     RMS[dD(SAO)]   TOL
   5  -1417.2429078492    -5595.2821296     2337.0176388    0.858D-07 0.652D-14
          Norm of current diis error: 0.47073E-04
          max. resid. norm for Fia-block=  1.691D-06 for orbital     81a         
          max. resid. fock norm         =  1.557D-05 for orbital    854a         
 mo-orthogonalization: Cholesky decomposition
          Delta Eig. =     0.0068366603 eV 

 DENSITY CONVERGED !

 
                                              current damping :  0.350
 ITERATION  ENERGY          1e-ENERGY        2e-ENERGY     RMS[dD(SAO)]   TOL
   6  -1417.2429078491    -5595.2821736     2337.0176828    0.198D-07 0.620D-14
          Norm of current diis error: 0.17131E-04
          max. resid. norm for Fia-block=  6.343D-07 for orbital     73a         
          max. resid. fock norm         =  3.605D-06 for orbital    854a         
          Delta Eig. =     0.0015137052 eV 

 ENERGY & DENSITY CONVERGED !

 
                                              current damping :  0.200
 ITERATION  ENERGY          1e-ENERGY        2e-ENERGY     RMS[dD(SAO)]   TOL
   7  -1417.2429078492    -5595.2821788     2337.0176880    0.604D-08 0.591D-14
          max. resid. norm for Fia-block=  3.130D-07 for orbital     81a         
          max. resid. fock norm         =  9.436D-07 for orbital    854a         

 convergence criteria satisfied after     7 iterations


                  ------------------------------------------ 
                 |  total energy      =  -1417.24290784922  |
                  ------------------------------------------ 
                 :  kinetic energy    =   1415.51256689860  :
                 :  potential energy  =  -2832.75547474782  :
                 :  virial theorem    =      1.99877907948  :
                 :  wavefunction norm =      1.00000000000  :
                  .......................................... 


 orbitals $scfmo  will be written to file mos

    irrep                 81a         82a         83a         84a         85a   
 eigenvalues H         -0.32457    -0.31494    -0.26769    -0.26281    -0.26193
            eV          -8.8320     -8.5701     -7.2843     -7.1516     -7.1275
 occupation              2.0000      2.0000      2.0000      2.0000      2.0000 

    irrep                 86a         87a         88a         89a         90a   
 eigenvalues H          0.00976     0.04314     0.06722     0.07224     0.09763
            eV           0.2656      1.1739      1.8293      1.9658      2.6567
 
 
 
 
 ==============================================================================
                           electrostatic moments
 ==============================================================================

 reference point for electrostatic moments:    0.00000   0.00000   0.00000

 
              nuc           elec       ->  total
 ------------------------------------------------------------------------------
                          charge      
 ------------------------------------------------------------------------------
         170.000000    -170.000000       0.000000
 
 ------------------------------------------------------------------------------
                       dipole moment  
 ------------------------------------------------------------------------------
   x      74.438959     -82.186229      -7.747270
   y      42.063344     -46.463267      -4.399923
   z       9.490196     -10.463155      -0.972959
 
   | dipole moment | =     8.9625 a.u. =    22.7804 debye 
 
 ------------------------------------------------------------------------------
                     quadrupole moment
 ------------------------------------------------------------------------------
  xx    3872.055748   -3982.846456    -110.790708
  yy    8367.530538   -8452.818267     -85.287729
  zz      19.416534    -132.622604    -113.206070
  xy   -3882.200679    3860.808427     -21.392251
  xz     156.635592    -157.638515      -1.002924
  yz      84.861002     -85.432039      -0.571037
 
     1/3  trace=    -103.094836
     anisotropy=      45.768067
 
 ==============================================================================
 

    dscf profiling
  --------------------------------------------------------------------
             module   cpu total (s)       %  wall total (s)       %

          dscf.total          4041.0  100.00          3933.8  100.00
        dscf.prepare             8.7    0.21             8.7    0.22
      prepare.oneint             0.3    0.01             0.3    0.01
     prepare.moinput             4.8    0.12             4.8    0.12
     moinput_orthmos             3.1    0.08             3.1    0.08
            dscf.scf          4030.7   99.75          3923.5   99.74
             scf.pre             0.0    0.00             0.0    0.00
        scf.makedmat             2.9    0.07             2.9    0.07
          scf.shloop          3774.2   93.40          3787.7   96.29
          shloop_omp          3773.7   93.39          3787.2   96.27
          scf.symcar             0.6    0.01             0.6    0.01
        scf.makefock             0.8    0.02             0.9    0.02
          scf.newerg             0.0    0.00             0.0    0.00
          scf.newcnv            33.5    0.83             4.3    0.11
           scf.fdiag            90.2    2.23            11.3    0.29
         diag_tritrn            23.1    0.57             2.9    0.07
          diag_rdiag            63.3    1.57             7.9    0.20
          scf.modump           103.1    2.55            97.2    2.47
           ortho_all             7.3    0.18             2.6    0.07
            scf.post            17.0    0.42            15.7    0.40
        dscf.postscf             1.6    0.04             1.6    0.04
 


    ------------------------------------------------------------------------
         total  cpu-time :  1 hours  7 minutes and 22 seconds
         total wall-time :  1 hours  5 minutes and 35 seconds
    ------------------------------------------------------------------------

   ****  dscf : all done  ****


    2018-02-14 10:54:07.709 

