
   OpenMP run-time library returned nthreads = 28
 operating system is UNIX !

 dscf (c-13-32) : TURBOMOLE V7.3 ( 22142 ) 4 Jul 2018 at 18:12:42
 Copyright (C) 2018 TURBOMOLE GmbH, Karlsruhe


    2019-04-01 21:36:34.966 



                             d s c f - program

                   idea & directorship : reinhart ahlrichs
                   program development : marco haeser
                                         michael baer
                           dft version : oliver treutler


                          quantum chemistry group
                          universitaet  karlsruhe
                                  germany




                          References             
                                                 
          TURBOMOLE:                             
              R. Ahlrichs, M. Baer, M. Haeser, H. Horn, and
              C. Koelmel
              Electronic structure calculations on workstation
              computers: the program system TURBOMOLE
              Chem. Phys. Lett. 162: 165 (1989)
          Density Functional:                              
              O. Treutler and R. Ahlrichs                      
              Efficient Molecular Numerical Integration Schemes
              J. Chem. Phys. 102: 346 (1995)                   
          Parallel Version:                                
              Performance of parallel TURBOMOLE for Density    
              Functional Calculations                          
              M. v. Arnim and R. Ahlrichs                      
              J. Comp. Chem. 19: 1746 (1998)                   
                                         




              +--------------------------------------------------+
              | Atomic coordinate, charge and isotop information |
              +--------------------------------------------------+

                    atomic coordinates            atom    charge  isotop
         -1.29912038   -0.21116617   -0.03708677    o      8.000     0
         -1.97688322    1.46631071    0.02401246    h      1.000     0
          0.51786531    0.04885066   -0.00660887    h      1.000     0
          4.22160315    0.19498685    0.01106185    n      0.000     0
          4.77976103   -0.84934757   -1.49087521    h      0.000     0
          4.80757036   -0.77013614    1.55470258    h      0.000     0
          5.46756625    2.66743643   -0.06498382    c      0.000     0
          4.88072612    3.76673729    1.56871356    h      0.000     0
          7.52984193    2.59317969   -0.08190758    h      0.000     0
          4.85016953    3.68017368   -1.74272768    h      0.000     0
 
       center of nuclear mass  :    2.64113946    0.84377340   -0.02842782
       center of nuclear charge:   -1.18519809   -0.01741680   -0.02792905

              +--------------------------------------------------+
              |               basis set information              |
              +--------------------------------------------------+

              we will work with the 1s 3p 5d 7f 9g ... basis set
              ...i.e. with spherical basis functions...

   type   atoms  prim   cont   basis
   ---------------------------------------------------------------------------
    o        1     50     30   cc-pVTZ   [4s3p2d1f|18s5p2d1f]
    h        7     16     14   cc-pVTZ   [3s2p1d|5s2p1d]
    n        1     50     30   cc-pVTZ   [4s3p2d1f|18s5p2d1f]
    c        1     50     30   cc-pVTZ   [4s3p2d1f|18s5p2d1f]
   ---------------------------------------------------------------------------
   total:   10    262    188
   ---------------------------------------------------------------------------

   total number of primitive shells          :   86
   total number of contracted shells         :   72
   total number of cartesian basis functions :  210
   total number of SCF-basis functions       :  188


 integral neglect threshold       :  0.16E-12
 integral storage threshold THIZE :  0.10E-04
 integral storage threshold THIME :         5


 DENSITY CONVERGENCE CHECK SWITCHED ON !
 SCF CONVERGENCE IF RMS(delta[D]) <     0.1000000000E-06


 symmetry group of the molecule :   c1 

 the group has the following generators :
   c1(z)

    1 symmetry operations found

 there are 1 real representations :   a   

 maximum number of shells which are related by symmetry :  1


    mo occupation :
   irrep   mo's   occupied
    a      188        5
 
 number of basis functions   :                    188
 number of occupied orbitals :                      5
 

 automatic virtual orbital shift switched on 
      shift if e(lumo)-e(homo) < 0.10000000    


          ------------------------
          nuclear repulsion energy  :   9.12565573012    
          ------------------------


         -----------------
         -S,T+V- integrals
         -----------------

 1e-integrals will be neglected if expon. factor < 0.159141E-13
 
   Difference densities algorithm switched on.
   The maximal number of linear combinations of
   difference densities is                    20 .

 DIIS switched on: error vector is FDS-SDF
 Max. Iterations for DIIS is     :   5
 DIIS matrix (see manual) 
    Scaling factor of diagonals  :  1.200
    threshold for scaling factor :  0.000

 scf convergence criterion : increment of total energy < .1000000D-08
                  and increment of one-electron energy < .1000000D-05

  MOs are in ASCII format !


 reading orbital data $scfmo  from file mos
 orbital characterization : scfconv=9

 DSCF restart information will be dumped onto file mos

 
                                              current damping :  0.700
 ITERATION  ENERGY          1e-ENERGY        2e-ENERGY     RMS[dD(SAO)]   TOL
   1  -76.048610050899    -122.97714763     37.802881853    0.000D+00 0.159D-12
          max. resid. norm for Fia-block=  1.035D-01 for orbital      1a         
          max. resid. fock norm         =  3.060D-01 for orbital    176a         
          Delta Eig. =    28.7360015479 eV 
 
                                              current damping :  0.650
 ITERATION  ENERGY          1e-ENERGY        2e-ENERGY     RMS[dD(SAO)]   TOL
   2  -76.055420245604    -122.96218139     37.781105414    0.554D-03 0.100D-12
          Norm of current diis error: 0.16013    
          max. resid. norm for Fia-block=  4.950D-02 for orbital      1a         
          max. resid. fock norm         =  1.228D-01 for orbital    158a         
          Delta Eig. =    12.5854187601 eV 
 
                                              current damping :  0.600
 ITERATION  ENERGY          1e-ENERGY        2e-ENERGY     RMS[dD(SAO)]   TOL
   3  -76.056663254063    -122.98424133     37.801922343    0.265D-03 0.764D-13
          Norm of current diis error: 0.66396E-01
          max. resid. norm for Fia-block=  2.005D-02 for orbital      1a         
          max. resid. fock norm         =  4.953D-02 for orbital    166a         
          Delta Eig. =     5.0223416075 eV 
 
                                              current damping :  0.650
 ITERATION  ENERGY          1e-ENERGY        2e-ENERGY     RMS[dD(SAO)]   TOL
   4  -76.056874819644    -122.98095980     37.798429254    0.111D-03 0.662D-13
          Norm of current diis error: 0.25216E-01
          max. resid. norm for Fia-block=  7.703D-03 for orbital      1a         
          max. resid. fock norm         =  1.719D-02 for orbital    143a         
          Delta Eig. =     1.8556129604 eV 
 
                                              current damping :  0.700
 ITERATION  ENERGY          1e-ENERGY        2e-ENERGY     RMS[dD(SAO)]   TOL
   5  -76.056905877728    -122.98310610     37.800544496    0.434D-04 0.614D-13
          Norm of current diis error: 0.10404E-01
          max. resid. norm for Fia-block=  3.028D-03 for orbital      1a         
          max. resid. fock norm         =  7.439D-03 for orbital    176a         
 mo-orthogonalization: Cholesky decomposition
          Delta Eig. =     0.7026694468 eV 
 
                                              current damping :  0.550
 ITERATION  ENERGY          1e-ENERGY        2e-ENERGY     RMS[dD(SAO)]   TOL
   6  -76.056911143430    -122.98330196     37.800735082    0.175D-04 0.575D-13
          Norm of current diis error: 0.44837E-02
          max. resid. norm for Fia-block=  1.245D-03 for orbital      1a         
          max. resid. fock norm         =  2.746D-03 for orbital    176a         
          Delta Eig. =     0.3173157231 eV 
 
                                              current damping :  0.400
 ITERATION  ENERGY          1e-ENERGY        2e-ENERGY     RMS[dD(SAO)]   TOL
   7  -76.056912228459    -122.98344575     37.800877789    0.851D-05 0.530D-13
          Norm of current diis error: 0.17362E-02
          max. resid. norm for Fia-block=  4.414D-04 for orbital      1a         
          max. resid. fock norm         =  9.717D-04 for orbital    173a         
          Delta Eig. =     0.1247803469 eV 
 
                                              current damping :  0.250
 ITERATION  ENERGY          1e-ENERGY        2e-ENERGY     RMS[dD(SAO)]   TOL
   8  -76.056912416761    -122.98353044     37.800962291    0.376D-05 0.481D-13
          Norm of current diis error: 0.60323E-03
          max. resid. norm for Fia-block=  1.393D-04 for orbital      3a         
          max. resid. fock norm         =  2.844D-04 for orbital    173a         
          Delta Eig. =     0.0396838240 eV 
 
                                              current damping :  0.100
 ITERATION  ENERGY          1e-ENERGY        2e-ENERGY     RMS[dD(SAO)]   TOL
   9  -76.056912444798    -122.98353755     37.800969379    0.149D-05 0.439D-13
          Norm of current diis error: 0.19134E-03
          max. resid. norm for Fia-block=  4.518D-05 for orbital      3a         
          max. resid. fock norm         =  5.570D-05 for orbital    173a         
          Delta Eig. =     0.0090780759 eV 
 
                                              current damping :  0.050
 ITERATION  ENERGY          1e-ENERGY        2e-ENERGY     RMS[dD(SAO)]   TOL
  10  -76.056912448519    -122.98354707     37.800978892    0.534D-06 0.408D-13
          Norm of current diis error: 0.56223E-04
          max. resid. norm for Fia-block=  1.440D-05 for orbital      3a         
          max. resid. fock norm         =  1.441D-05 for orbital      3a         
 mo-orthogonalization: Cholesky decomposition
          Delta Eig. =     0.0007890622 eV 
 
                                              current damping :  0.100
 ITERATION  ENERGY          1e-ENERGY        2e-ENERGY     RMS[dD(SAO)]   TOL
  11  -76.056912448887    -122.98354040     37.800972221    0.161D-06 0.388D-13
          Norm of current diis error: 0.12823E-04
          max. resid. norm for Fia-block=  3.117D-06 for orbital      3a         
          max. resid. fock norm         =  3.121D-06 for orbital      3a         
          Delta Eig. =     0.0000742926 eV 

 DENSITY CONVERGED !

 
                                              current damping :  0.150
 ITERATION  ENERGY          1e-ENERGY        2e-ENERGY     RMS[dD(SAO)]   TOL
  12  -76.056912448907    -122.98354388     37.800975703    0.362D-07 0.452D-13
          Norm of current diis error: 0.30608E-05
          max. resid. norm for Fia-block=  8.844D-07 for orbital      3a         
          max. resid. fock norm         =  8.850D-07 for orbital      3a         
          Delta Eig. =     0.0000205127 eV 

 ENERGY & DENSITY CONVERGED !

 
                                              current damping :  0.200
 ITERATION  ENERGY          1e-ENERGY        2e-ENERGY     RMS[dD(SAO)]   TOL
  13  -76.056912448910    -122.98354134     37.800973157    0.797D-08 0.454D-13
          max. resid. norm for Fia-block=  1.592D-07 for orbital      4a         
          max. resid. fock norm         =  1.594D-07 for orbital      4a         

 convergence criteria satisfied after    13 iterations


                  ------------------------------------------ 
                 |  total energy      =    -76.05691244891  |
                  ------------------------------------------ 
                 :  kinetic energy    =     75.96895809578  :
                 :  potential energy  =   -152.02587054469  :
                 :  virial theorem    =      1.99884357187  :
                 :  wavefunction norm =      1.00000000000  :
                  .......................................... 


 orbitals $scfmo  will be written to file mos

    irrep                  1a          2a          3a          4a          5a   
 eigenvalues H        -20.55813    -1.34350    -0.70552    -0.57857    -0.50506
            eV        -559.4197    -36.5589    -19.1984    -15.7439    -13.7436
 occupation              2.0000      2.0000      2.0000      2.0000      2.0000 

    irrep                  6a          7a          8a          9a         10a   
 eigenvalues H          0.06097     0.13986     0.14910     0.16023     0.19546
            eV           1.6590      3.8059      4.0572      4.3602      5.3189
 
 
 
 
 ==============================================================================
                           electrostatic moments
 ==============================================================================

 reference point for electrostatic moments:    0.00000   0.00000   0.00000

 
              nuc           elec       ->  total
 ------------------------------------------------------------------------------
                          charge      
 ------------------------------------------------------------------------------
          10.000000     -10.000000       0.000000
 
 ------------------------------------------------------------------------------
                       dipole moment  
 ------------------------------------------------------------------------------
   x     -11.851981      12.248961       0.396980
   y      -0.174168       0.867082       0.692914
   z      -0.279291       0.312011       0.032721
 
   | dipole moment | =     0.7992 a.u. =     2.0315 debye 
 
 ------------------------------------------------------------------------------
                     quadrupole moment
 ------------------------------------------------------------------------------
  xx      17.677962     -22.094336      -4.416374
  yy       2.509183      -6.707262      -4.198079
  zz       0.011624      -5.456272      -5.444649
  xy      -0.678785      -0.752834      -1.431619
  xz       0.334549      -0.386869      -0.052320
  yz       0.097539      -0.071447       0.026091
 
     1/3  trace=      -4.686367
     anisotropy=       2.736480
 
 ==============================================================================
 


    ------------------------------------------------------------------------
         total  cpu-time :  3 minutes and 46 seconds
         total wall-time :  13.01 seconds
    ------------------------------------------------------------------------

   ****  dscf : all done  ****


    2019-04-01 21:36:47.920 

