Using Slurm to start processes with PMI2
STARTING ridft ON 8 PROCESSORS!
RUNNING PROGRAM /beegfs/modfac/apps/TURBOMOLE/7.0_intel_GA/bin/em64t-unknown-linux-gnu_mpi/ridft_mpi.
PLEASE WAIT UNTIL ridft HAS FINISHED.
Look for the output in slave1.output.
  this is node-proc. number 1 running on node c-5-13.local
  the total number of node-proc. spawned is            8
  parallel platform: MPP, or cluster with fast interconnect

 ridft (c-5-13.local) : TURBOMOLE V7.0.2( ) 15 Jan 2016 at 17:47:42
 Copyright (C) 2016 TURBOMOLE GmbH, Karlsruhe


    2016-06-15 10:24:33.492 



                                  r i d f t

                        DFT program with RI approximation 
                                for coulomb part 




                                                 
                                 References:     
                                                 
          TURBOMOLE:                             
              R. Ahlrichs, M. Baer, M. Haeser, H. Horn, and
              C. Koelmel
              Electronic structure calculations on workstation
              computers: the program system TURBOMOLE
              Chem. Phys. Lett. 162: 165 (1989)
          Density Functional:                              
              O. Treutler and R. Ahlrichs                      
              Efficient Molecular Numerical Integration Schemes
              J. Chem. Phys. 102: 346 (1995)                   
          Parallel Version:                                
              Performance of parallel TURBOMOLE for Density    
              Functional Calculations                          
              M. v. Arnim and R. Ahlrichs                      
              J. Comp. Chem. 19: 1746 (1998)                   
          RI-J Method:                                     
              Auxiliary Basis Sets to approximate Coulomb      
              Potentials                                       
              Chem. Phys. Lett. 240: 283 (1995)                
              K. Eichkorn, O. Treutler, H. Oehm, M. Haeser     
              and R. Ahlrichs                                  
              Chem. Phys. Lett. 242: 652 (1995)                
                                                           
              Auxiliary Basis Sets for Main Row Atoms and their
              Use to approximate Coulomb Potentials            
              K. Eichkorn, F. Weigend, O. Treutler and         
              R. Ahlrichs                                      
              Theo. Chem. Acc. 97: 119 (1997)                   
                                                           
              Accurate Coulomb-fitting basis sets for H to Rn 
              F. Weigend                                        
              Phys. Chem. Chem. Phys. 8: 1057 (2006)            
                                                           
          Multipole accelerated RI-J (MARI-J):             
              Fast evaluation of the Coulomb potential for     
              electron densities using multipole accelerated   
              resolution of identity approximation             
              M. Sierka, A. Hogekamp and R. Ahlrichs           
              J. Chem. Phys. 118: 9136 (2003)                  
          RI-JK Method:                                     
              A fully direct RI-HF algorithm: Implementation,
              optimised auxiliary basis sets, demonstration of
              accuracy and efficiency                         
              F. Weigend                                      
              Phys. Chem. Chem. Phys. 4: 4285 (2002)           
          Two-component HF and DFT with spin-orbit coupling:  
              Self-consistent treatment of spin-orbit         
              interactions with efficient Hartree-Fock and    
              density functional methods                      
              M. K. Armbruster, F. Weigend, C. van Wüllen and 
              W. Klopper                                      
              Phys. Chem. Chem. Phys. 10: 1748 (2008)         
          Relativistic all-electron 2c calculations           
              An efficient implementation of two-component    
              relativistic exact-decoupling methods for large 
              molecules                                       
              D. Peng, N. Middendorf, F. Weigend, M. Reiher   
              J. Chem. Phys. 138, 184105 (2013)               
                                         


 


              +--------------------------------------------------+
              |      general information about current run       |
              +--------------------------------------------------+

 

 SCF run will be profiled !


 DENSITY CONVERGENCE CHECK SWITCHED ON !
 SCF CONVERGENCE IF RMS(delta[D]) <     0.1000000000E-06

 TPSS meta-GGA functional
 exchange:    LDA + TPSS
 correlation: LDA (PW) + TPSS
 A DFT calculation using the RI-J approximation will be carried out.

 !!!RI-K makes sense only with a hybrid functional.

    RI-K switched off!!!
 Allocatable memory for RI due to $ricore (MB):        5000


              +--------------------------------------------------+
              | Atomic coordinate, charge and isotop information |
              +--------------------------------------------------+

                    atomic coordinates            atom    charge  isotop
         -1.45507023   -0.18116804   -9.52270793    c      0.000     0
          1.50694321   -0.19354575   -9.48385516    c      0.000     0
          2.12405217    2.03944913   -8.00569248    n      0.000     0
          0.01645951    3.36017873   -7.21206420    c      0.000     0
         -2.08591750    2.09778498   -8.13413717    n      0.000     0
         -2.11122093   -2.53465187   -8.30614004    n      0.000     0
         -0.00725655   -4.02169626   -7.73304279    c      0.000     0
          2.12063177   -2.59098460   -8.33444814    n      0.000     0
         -0.03645282   -6.16685667   -6.93790273    o      0.000     0
         -0.00895730    5.31224693   -5.97635338    o      0.000     0
          4.64216894   -3.65890664   -8.16070672    c      0.000     0
          4.65250574    3.05453442   -7.73168219    c      0.000     0
         -9.05653139   -0.26688602   -3.51065762    c      0.000     0
         -7.56616108   -0.22542543   -6.07306957    c      0.000     0
         -6.12363864    2.11449016   -5.91062871    n      0.000     0
         -9.37086843    3.09775246    0.00000000    c      0.000     0
         -8.30425031    2.09292838   -2.31070042    n      0.000     0
         -8.17098683   -2.54512095   -2.30450212    n      0.000     0
         -6.52184173   -3.94132621   -3.81932549    c      0.000     0
         -6.11014599   -2.52684730   -6.00348985    n      0.000     0
         -5.67367595   -6.01403452   -3.35445286    o      0.000     0
         -5.63975536    5.48396634   -3.13932644    o      0.000     0
         -4.64532478   -3.53892792   -8.09163723    c      0.000     0
         -4.58761254    3.15924415   -7.92668303    c      0.000     0
          9.10583434   -0.57311614    3.51303868    c      0.000     0
          7.58458591   -0.42533956    6.04999601    c      0.000     0
          6.13149990    1.88976393    5.75576565    n      0.000     0
          6.82701360    3.27045453    3.63360320    c      0.000     0
          8.57312055    1.83190051    2.31408303    n      0.000     0
          8.06121263   -2.79176801    2.29739675    n      0.000     0
          6.45233760   -4.16066672    3.87110398    c      0.000     0
          6.15124754   -2.74246505    6.07186014    n      0.000     0
          5.54266123   -6.21721787    3.44175821    o      0.000     0
          6.07316405    5.37345516    3.07906307    o      0.000     0
          4.64216894   -3.65890664    8.16070672    c      0.000     0
          4.65250574    3.05453442    7.73168219    c      0.000     0
          7.58458591   -0.42533956   -6.04999601    c      0.000     0
          9.10583434   -0.57311614   -3.51303868    c      0.000     0
          8.57312055    1.83190051   -2.31408303    n      0.000     0
          6.82701360    3.27045453   -3.63360320    c      0.000     0
          6.13149990    1.88976393   -5.75576565    n      0.000     0
          6.15124754   -2.74246505   -6.07186014    n      0.000     0
          6.45233760   -4.16066672   -3.87110398    c      0.000     0
          8.06121263   -2.79176801   -2.29739675    n      0.000     0
          5.54266123   -6.21721787   -3.44175821    o      0.000     0
          6.07316405    5.37345516   -3.07906307    o      0.000     0
          9.04266080   -3.90976778    0.00000000    c      0.000     0
          9.71687729    2.74495949    0.00000000    c      0.000     0
         -7.56616108   -0.22542543    6.07306957    c      0.000     0
         -9.05653139   -0.26688602    3.51065762    c      0.000     0
         -8.30425031    2.09292838    2.31070042    n      0.000     0
         -6.57074784    3.43610792    3.71760153    c      0.000     0
         -6.12363864    2.11449016    5.91062871    n      0.000     0
         -6.11014599   -2.52684730    6.00348985    n      0.000     0
         -6.52184173   -3.94132621    3.81932549    c      0.000     0
         -8.17098683   -2.54512095    2.30450212    n      0.000     0
         -5.67367595   -6.01403452    3.35445286    o      0.000     0
         -5.63975536    5.48396634    3.13932644    o      0.000     0
         -9.20056631   -3.60705255    0.00000000    c      0.000     0
         -6.57074784    3.43610792   -3.71760153    c      0.000     0
          1.50694321   -0.19354575    9.48385516    c      0.000     0
         -1.45507023   -0.18116804    9.52270793    c      0.000     0
         -2.08591750    2.09778498    8.13413717    n      0.000     0
          0.01645951    3.36017873    7.21206420    c      0.000     0
          2.12405217    2.03944913    8.00569248    n      0.000     0
          2.12063177   -2.59098460    8.33444814    n      0.000     0
         -0.00725655   -4.02169626    7.73304279    c      0.000     0
         -2.11122093   -2.53465187    8.30614004    n      0.000     0
         -0.03645282   -6.16685667    6.93790273    o      0.000     0
         -0.00895730    5.31224693    5.97635338    o      0.000     0
         -4.64532478   -3.53892792    8.09163723    c      0.000     0
         -4.58761254    3.15924415    7.92668303    c      0.000     0
         -2.26134078   -0.09000766  -11.43386356    h      0.000     0
          2.36251671   -0.04667624  -11.36963176    h      0.000     0
          5.65623377   -3.29653275   -9.93270291    h      0.000     0
          4.39138338   -5.68873706   -7.86687320    h      0.000     0
          5.63960418    2.85915564   -9.54699091    h      0.000     0
          4.45818520    5.04774196   -7.22533007    h      0.000     0
        -11.11797694   -0.30458606   -3.74736472    h      0.000     0
         -8.79102487   -0.17697285   -7.74736692    h      0.000     0
         -4.44148002   -5.56620722   -7.74468351    h      0.000     0
         -5.67764437   -3.20047797   -9.85896580    h      0.000     0
          5.63960418    2.85915564    9.54699091    h      0.000     0
         -5.58166518    2.89152665   -9.72543775    h      0.000     0
         11.15295577   -0.78688196    3.78716235    h      0.000     0
          8.79329254   -0.30078771    7.73402545    h      0.000     0
          5.65623377   -3.29653275    9.93270291    h      0.000     0
          4.39138338   -5.68873706    7.86687320    h      0.000     0
         -4.36645789    5.17032849   -7.51661246    h      0.000     0
          4.45818520    5.04774196    7.22533007    h      0.000     0
          8.79329254   -0.30078771   -7.73402545    h      0.000     0
         11.15295577   -0.78688196   -3.78716235    h      0.000     0
          8.44329636   -5.88825435    0.00000000    h      0.000     0
         11.11502896   -3.77504920    0.00000000    h      0.000     0
          9.49052589    4.79718317    0.00000000    h      0.000     0
         11.72369085    2.23367519    0.00000000    h      0.000     0
         -8.79102487   -0.17697285    7.74736692    h      0.000     0
        -11.11797694   -0.30458606    3.74736472    h      0.000     0
        -11.26238981   -3.37189503    0.00000000    h      0.000     0
         -8.69678423   -5.61186301    0.00000000    h      0.000     0
        -11.41194273    2.74206821    0.00000000    h      0.000     0
         -8.99305549    5.12697818    0.00000000    h      0.000     0
          2.36251671   -0.04667624   11.36963176    h      0.000     0
         -2.26134078   -0.09000766   11.43386356    h      0.000     0
         -4.44148002   -5.56620722    7.74468351    h      0.000     0
         -5.67764437   -3.20047797    9.85896580    h      0.000     0
         -4.36645789    5.17032849    7.51661246    h      0.000     0
         -5.58166518    2.89152665    9.72543775    h      0.000     0
          0.49539171    3.67413783    0.00000000    c      6.000     0
         -0.92366034    1.16805862    0.00000000    c      6.000     0
          0.92859252   -1.05941826    0.00000000    c      6.000     0
         -1.30209689    5.89433927    0.00000000    n      7.000     0
         -2.48357257    5.87192712    1.56883174    h      1.000     0
         -2.48357257    5.87192712   -1.56883174    h      1.000     0
         -0.30101448    7.54809530    0.00000000    h      1.000     0
         -2.14965796    1.05488292    1.66764552    h      1.000     0
         -2.14965796    1.05488292   -1.66764552    h      1.000     0
          1.67225645    3.89810817   -1.67535560    h      1.000     0
          1.67225645    3.89810817    1.67535560    h      1.000     0
         -0.07237651   -2.86559961    0.00000000    h      1.000     0
          2.14381871   -1.00455951   -1.67325800    h      1.000     0
          2.14381871   -1.00455951    1.67325800    h      1.000     0
 
       center of nuclear mass  :    0.01258556   -0.16108642    0.00000000
       center of nuclear charge:   -0.23201248    2.52229306    0.00000000

              +--------------------------------------------------+
              |               basis set information              |
              +--------------------------------------------------+

              we will work with the 1s 3p 5d 7f 9g ... basis set
              ...i.e. with spherical basis functions...

   type   atoms  prim   cont   basis
   ---------------------------------------------------------------------------
    c       39     77     57   def2-QZVP   [7s4p3d2f1g|15s8p3d2f1g]
    n       25     77     57   def2-QZVP   [7s4p3d2f1g|15s8p3d2f1g]
    o       12     77     57   def2-QZVP   [7s4p3d2f1g|15s8p3d2f1g]
    h       46     33     30   def2-QZVP   [4s3p2d1f|7s3p2d1f]
   ---------------------------------------------------------------------------
   total:  122   7370   5712
   ---------------------------------------------------------------------------

   total number of primitive shells          :  100
   total number of contracted shells         : 1752
   total number of cartesian basis functions : 7082
   total number of SCF-basis functions       : 5712


 integral neglect threshold       :  0.47E-14
 integral storage threshold THIZE :  0.10E-04
 integral storage threshold THIME :         5

 RI-J AUXILIARY BASIS SET information:

              we will work with the 1s 3p 5d 7f 9g ... basis set
              ...i.e. with spherical basis functions...

   type   atoms  prim   cont   basis
   ---------------------------------------------------------------------------
    c       39     70     49   def2-QZVP   [6s4p3d1f1g|12s5p4d2f1g]
    n       25     70     49   def2-QZVP   [6s4p3d1f1g|12s5p4d2f1g]
    o       12     70     49   def2-QZVP   [6s4p3d1f1g|12s5p4d2f1g]
    h       46     16     11   def2-QZVP   [3s1p1d|5s2p1d]
   ---------------------------------------------------------------------------
   total:  122   6056   4230
   ---------------------------------------------------------------------------

   total number of primitive shells          :   80
   total number of contracted shells         : 1370
   total number of cartesian basis functions : 5188
   total number of SCF-basis functions       : 4230


 symmetry group of the molecule :   c1 

 the group has the following generators :
   c1(z)

    1 symmetry operations found

 there are 1 real representations :   a   

 maximum number of shells which are related by symmetry :  1


    mo occupation :
   irrep   mo's   occupied
    a     5712       17
 
 number of basis functions   :         5712
 number of occupied orbitals :           17
 
  
           ------------------
           density functional
           ------------------
 Dummy atoms with grid-point found.
 DFT quadrature threshold dgrenze tightened by factor 1/10.

 TPSS meta-GGA functional
 exchange:    LDA + TPSS
 correlation: LDA (PW) + TPSS
 Dummy atoms with grid-point found.
 DFT quadrature threshold dgrenze tightened by factor 1/10.

 Dummy atoms with grid-point found.
 DFT quadrature threshold dgrenze tightened by factor 1/10.

 grinp -> nfun, dfgga, dfhybrid 
           5 F F
 iterations will be done with small grid
  
 spherical integration : Lebedev's spherical grid
 spherical gridsize    :           5
    i.e. gridpoints    :         590
 value for diffuse not defined
 radial integration    : Chebyshev 2nd kind (scaling 3)
 radial gridsize       :           8
 integration cells     :         122
 partition function    : becke
 partition sharpness   :           3
  
 found dummy atom(s) with basis: included in dft

 <rddim> : input of entry tasksize
           from data group '$pardft' failed !

               Default values taken

 <rddim> : input of entry memdiv
           from data group '$pardft' failed !

               Default values taken
  RIDFT: memory allocation for DFT gridpoints
  MEMORY is divided by 1 as DEFAULT
 Each node can hold at most  the            1 -th part
 of the gridpoints    

 biggest AO integral is expected to be     6.990327543
  
           ------------------------
               RI-J - INFORMATION
           ------------------------
 
 
 **************************************************
 *      MEMORY ALLOCATION FOR PARALLEL RI-DFT     *
 **************************************************
 
 
MEMORY FOR (MU NU/ ALPHA), SEQUENTIAL RUN               4863 MByte
 
            DIFFERENCE IN MEMORY NEED:       DIAG./SLAVE  
 
      TOTAL DIFFERENCE :                   1461 MByte
 
      difference in xcore:                  138 MByte
      difference in fatmat:                 443 MByte
      getcor calls skipped by slaves:       881 MByte
 
 
           Integral memory available for diagonal.      4863 MByte
 
           Integral memory available for slave             0 MByte
 
         MEMORY FOR (MU NU/ ALPHA) ON DIAGONALIZER      4863 MByte
 
         MEMORY FOR (MU NU/ ALPHA) ON ONE SLAVE            0 MByte
 
         TOTAL MEMORY FOR (MU NU/ ALPHA),ALL NODES      4863 MByte
 
 Contributions to RI integral batches: 
  neglected integral batches:      991190
  direct contribution:             514369
  memory contribution:       30069
 Memory core needed for (P|Q) and Cholesky    137 MByte
 Memory core minimum needed except of (P|Q)     2 MByte
 Total minimum memory core needed (sum)       139 MByte
     number of direct tasks:         160
  
 ****************************************
 Memory allocated for RI-J  5001 MByte
 ****************************************
                                            

          ------------------------
          nuclear repulsion energy  :   138.978749168    
          ------------------------

 
          -----------------
          -S integrals
          -----------------

 1e-integrals will be neglected if expon. factor < 0.471895E-15
 
          -----------------
          -T+V integrals
          -----------------

 1e-integrals will be neglected if expon. factor < 0.471895E-15
 Difference densities >>NOT<< switched on in parallel ridft!

 automatic virtual orbital shift switched on 
      shift if e(lumo)-e(homo) < 0.10000000    


 DIIS switched on: error vector is FDS-SDF
 Max. Iterations for DIIS is     :   4
 DIIS matrix (see manual) 
    Scaling factor of diagonals  :  1.200
    threshold for scaling factor :  0.000

 scf convergence criterion : increment of total energy < .1000000D-08
                  and increment of one-electron energy < .1000000D-05


 <geterg> : there is no data group $energy 

  MOs are in ASCII format !


 reading orbital data $scfmo  from file mos . 

 orbital characterization : expanded
 
 mo provided and orthogonalized by Cholesky decomposition

 DSCF restart information will be dumped onto file mos


 Starting SCF iterations


 ITERATION  ENERGY          1e-ENERGY        2e-ENERGY     RMS[dD(SAO)]   TOL
   1  -174.26804859987    -494.27532669     181.02852893    0.000D+00 0.471D-14
                            Exc = -25.7325836916     Coul =  206.761112619    
                              N = 34.000069180    
                            current damping = 0.700
 
          max. resid. norm for Fia-block=  5.980D-01 for orbital      5a         
          max. resid. fock norm         =  9.215D+01 for orbital   4797a         

 ITERATION  ENERGY          1e-ENERGY        2e-ENERGY     RMS[dD(SAO)]   TOL
   2  -174.80156166110    -499.41782868     185.63751785    0.379D-03 0.471D-14
                            Exc = -26.3262190637     Coul =  211.963736912    
                              N = 34.000004709    
                            current damping = 0.650
 
          Norm of current diis error:  2.8123    
          max. resid. norm for Fia-block=  1.255D-01 for orbital      1a         
          max. resid. fock norm         =  1.561D-01 for orbital   5099a         

 ITERATION  ENERGY          1e-ENERGY        2e-ENERGY     RMS[dD(SAO)]   TOL
   3  -174.91860642968    -500.38117697     186.48382137    0.144D-03 0.471D-14
                            Exc = -26.5093287884     Coul =  212.993150160    
                              N = 33.999971973    
                            current damping = 0.550
 
          Norm of current diis error:  1.3694    
          max. resid. norm for Fia-block=  5.291D-02 for orbital      1a         
          max. resid. fock norm         =  5.639D-02 for orbital     18a         

 ITERATION  ENERGY          1e-ENERGY        2e-ENERGY     RMS[dD(SAO)]   TOL
   4  -174.95342499842    -501.52545573     187.59328157    0.778D-04 0.471D-14
                            Exc = -26.6715418887     Coul =  214.264823458    
                              N = 33.999949567    
                            current damping = 0.450
 
          Norm of current diis error: 0.49804    
          max. resid. norm for Fia-block=  1.930D-02 for orbital      5a         
          max. resid. fock norm         =  2.538D-02 for orbital   5301a         

 ITERATION  ENERGY          1e-ENERGY        2e-ENERGY     RMS[dD(SAO)]   TOL
   5  -174.95875917549    -501.67217638     187.73466804    0.351D-04 0.471D-14
                            Exc = -26.7115372727     Coul =  214.446205310    
                              N = 33.999943065    
                            current damping = 0.300
 
          Norm of current diis error: 0.19587    
          max. resid. norm for Fia-block=  7.770D-03 for orbital      5a         
          max. resid. fock norm         =  1.139D-02 for orbital   5326a         
          mo-orthogonalization: Cholesky decomposition

 ITERATION  ENERGY          1e-ENERGY        2e-ENERGY     RMS[dD(SAO)]   TOL
   6  -174.95949044197    -501.91966440     187.98142479    0.149D-04 0.471D-14
                            Exc = -26.7455708103     Coul =  214.726995605    
                              N = 33.999937441    
                            current damping = 0.150
 
          Norm of current diis error: 0.80285E-01
          max. resid. norm for Fia-block=  3.032D-03 for orbital      9a         
          max. resid. fock norm         =  4.822D-03 for orbital   4661a         

 ITERATION  ENERGY          1e-ENERGY        2e-ENERGY     RMS[dD(SAO)]   TOL
   7  -174.95959740388    -501.88924465     187.95089808    0.488D-05 0.471D-14
                            Exc = -26.7440653467     Coul =  214.694963425    
                              N = 33.999938040    
                            current damping = 0.200
 
          Norm of current diis error: 0.28118E-01
          max. resid. norm for Fia-block=  8.140D-04 for orbital     11a         
          max. resid. fock norm         =  1.062D-03 for orbital   5326a         

 ITERATION  ENERGY          1e-ENERGY        2e-ENERGY     RMS[dD(SAO)]   TOL
   8  -174.95960938741    -501.88568012     187.94732157    0.119D-05 0.471D-14
                            Exc = -26.7447462182     Coul =  214.692067784    
                              N = 33.999937529    
                            current damping = 0.050
 
          Norm of current diis error: 0.73654E-02
          max. resid. norm for Fia-block=  2.356D-04 for orbital     15a         
          max. resid. fock norm         =  3.228D-04 for orbital   5666a         

 ITERATION  ENERGY          1e-ENERGY        2e-ENERGY     RMS[dD(SAO)]   TOL
   9  -174.95961003067    -501.90352222     187.96516302    0.419D-06 0.471D-14
                            Exc = -26.7461341201     Coul =  214.711297141    
                              N = 33.999937469    
                            current damping = 0.100
 
          Norm of current diis error: 0.41651E-02
          max. resid. norm for Fia-block=  9.787D-05 for orbital     15a         
          max. resid. fock norm         =  1.582D-04 for orbital   5666a         

 ITERATION  ENERGY          1e-ENERGY        2e-ENERGY     RMS[dD(SAO)]   TOL
  10  -174.95961032418    -501.89723910     187.95887961    0.114D-06 0.471D-14
                            Exc = -26.7456700587     Coul =  214.704549668    
                              N = 33.999937499    
                            current damping = 0.150
 
          Norm of current diis error: 0.40698E-03
          max. resid. norm for Fia-block=  2.159D-05 for orbital     15a         
          max. resid. fock norm         =  4.014D-05 for orbital   5550a         
          mo-orthogonalization: Cholesky decomposition

 DENSITY CONVERGED !


 ITERATION  ENERGY          1e-ENERGY        2e-ENERGY     RMS[dD(SAO)]   TOL
  11  -174.95961032487    -501.89695785     187.95859835    0.216D-07 0.471D-14
                            Exc = -26.7456437760     Coul =  214.704242131    
                              N = 33.999937481    
                            current damping = 0.050
 
          Norm of current diis error: 0.35811E-03
          max. resid. norm for Fia-block=  9.087D-06 for orbital     15a         
          max. resid. fock norm         =  1.714D-05 for orbital   5550a         

 DENSITY CONVERGED !


 ITERATION  ENERGY          1e-ENERGY        2e-ENERGY     RMS[dD(SAO)]   TOL
  12  -174.95961032720    -501.89717095     187.95881145    0.952D-08 0.471D-14
                            Exc = -26.7456633368     Coul =  214.704474791    
                              N = 33.999937488    
                            current damping = 0.100
 
          Norm of current diis error: 0.24792E-04
          max. resid. norm for Fia-block=  1.275D-06 for orbital      9a         
          max. resid. fock norm         =  1.741D-06 for orbital     11a         

 ENERGY & DENSITY CONVERGED !


 ITERATION  ENERGY          1e-ENERGY        2e-ENERGY     RMS[dD(SAO)]   TOL
  13  -174.95955735343    -501.89713639     187.95882987    0.138D-08 0.471D-14
                            Exc = -26.7456067912     Coul =  214.704436664    
                              N = 33.999947916    
                            current damping = 0.150
 
          Norm of current diis error: 0.27241E-04
          max. resid. norm for Fia-block=  5.898D-07 for orbital     11a         
          max. resid. fock norm         =  8.202D-07 for orbital     11a         

 End of SCF iterations

   convergence criteria satisfied after   13 iterations


                  ------------------------------------------ 
                 |  total energy      =   -174.95955735343  |
                  ------------------------------------------ 
                 :  kinetic energy    =    174.05318068333  :
                 :  potential energy  =   -349.01273803676  :
                 :  virial theorem    =      1.99481950753  :
                 :  wavefunction norm =      1.00000000000  :
                  .......................................... 


 <geterg> : there is no data group $energy 


 <skperg> : $end is missing 


 orbitals $scfmo  will be written to file mos

    irrep                 13a         14a         15a         16a         17a   
 eigenvalues H         -0.55059    -0.53093    -0.49431    -0.47603    -0.46831
            eV         -14.9825    -14.4475    -13.4510    -12.9535    -12.7434
 occupation              2.0000      2.0000      2.0000      2.0000      2.0000 

    irrep                 18a         19a         20a         21a         22a   
 eigenvalues H         -0.21184    -0.15569    -0.15292    -0.14597    -0.11703
            eV          -5.7645     -4.2366     -4.1613     -3.9722     -3.1847
 
 
 ! grave: sending quit signal to master process
 
 
 
 
 ==============================================================================
                           electrostatic moments
 ==============================================================================

 reference point for electrostatic moments:    0.00000   0.00000   0.00000

 
              nuc           elec       ->  total
 ------------------------------------------------------------------------------
                          charge      
 ------------------------------------------------------------------------------
          35.000000     -34.000000       1.000000
 
 ------------------------------------------------------------------------------
                       dipole moment  
 ------------------------------------------------------------------------------
   x      -8.120437       7.174176      -0.946260
   y      88.280257     -83.414602       4.865655
   z       0.000000      -0.000000      -0.000000
 
   | dipole moment | =     4.9568 a.u. =    12.5990 debye 
 
 ------------------------------------------------------------------------------
                     quadrupole moment
 ------------------------------------------------------------------------------
  xx      60.092240     -75.584311     -15.492071
  yy     507.897539    -495.273164      12.624375
  zz      21.697767     -38.665845     -16.968078
  xy     -82.216712      76.018969      -6.197743
  xz       0.000000      -0.000000      -0.000000
  yz       0.000000      -0.000000      -0.000000
 
     1/3  trace=      -6.611925
     anisotropy=      30.813135
 
 ==============================================================================
 

    ridft profiling
  --------------------------------------------------------------------
             module   cpu total (s)       %  wall total (s)       %

               RIDFT         20980.8  100.00         20986.2  100.00
         Ridft_b_scf           524.3    2.50           523.9    2.50
        b_scf_prelim             0.0    0.00             0.0    0.00
        b_scf_molinp             0.0    0.00             0.0    0.00
         b_scf_init0             0.0    0.00             0.0    0.00
        b_scf_auxbas             0.0    0.00             0.0    0.00
      b_scf_symmetry             0.0    0.00             0.0    0.00
         b_scf_cosmo             0.0    0.00             0.0    0.00
        b_scf_params            45.4    0.22            45.4    0.22
          b_scf_ri-j            45.5    0.22            45.4    0.22
    b_scf_ri-j_auxpq            45.2    0.22            45.2    0.22
     ri-j_auxpq_chol            10.8    0.05            10.8    0.05
         b_scf_1elec             6.2    0.03             6.2    0.03
       b_scf_moinput           427.1    2.04           426.8    2.03
     moinput_orthmos           426.9    2.03           426.6    2.03
    b_scf_dft-dstmax             0.0    0.00             0.0    0.00
           Ridft_scf         20453.5   97.49         20459.2   97.49
          Scf_b_loop             0.0    0.00             0.0    0.00
                noga             0.0    0.00             0.0    0.00
            Scf_loop         20431.8   97.38         20436.0   97.38
     scf_loop_mkdmat            20.2    0.10            20.2    0.10
       scf_loop_ri-j          2303.5   10.98          2301.6   10.97
      parlp1.bc.dens             2.2    0.01             2.2    0.01
        parlp1.gs.gp            46.8    0.22            46.8    0.22
        parlp2.bc.gq             0.0    0.00             0.0    0.00
        scf_loop_dft         14855.0   70.80         14843.7   70.73
      pardft.bc.dens             0.0    0.00             0.0    0.00
        dft_grid_con            77.2    0.37            77.1    0.37
          dft_xcmrhf         14768.9   70.39         14757.6   70.32
          dft_getval           143.1    0.68           143.1    0.68
          funct2 dst             1.8    0.01             1.7    0.01
      funct2 f2loop1            25.0    0.12            25.2    0.12
      funct2 f2loop2            61.7    0.29            61.5    0.29
          funct2 s+c            53.3    0.25            53.5    0.25
        funct2 cmf_2            49.6    0.24            49.7    0.24
          dft_mkdens          7949.9   37.89          7943.8   37.85
        dft_mgga-fun             2.2    0.01             2.2    0.01
          dft_mkfock          6672.5   31.80          6667.4   31.77
     pardft.red.fock          1156.4    5.51          1155.5    5.51
     scf_loop_energy             0.3    0.00             0.3    0.00
     scf_loop_mkfock             0.5    0.00             0.5    0.00
       scf_loop_diis          1812.0    8.64          1810.6    8.63
       scf_loop_diag           933.5    4.45           932.8    4.44
         diag_tritrn           352.9    1.68           352.6    1.68
          diag_rdiag           579.5    2.76           579.0    2.76
     scf_loop_modump           240.4    1.15           260.1    1.24
      scf_loop_ortho           257.3    1.23           257.1    1.23
          Scf_a_loop            21.7    0.10            23.3    0.11
         Ridft_a_scf             3.1    0.01             3.1    0.01
         a_scf_fanal             3.0    0.01             3.0    0.01
 


    ------------------------------------------------------------------------
         total  cpu-time :  5 hours 50 minutes and  7 seconds
         total wall-time :  5 hours 50 minutes and 12 seconds
    ------------------------------------------------------------------------


   ****  ridft : all done  ****


    2016-06-15 16:14:45.842 

