STARTING dscf ON 60 PROCESSORS!
RUNNING PROGRAM /sopt/TURBOMOLE/7.2.1-official/bin/em64t-unknown-linux-gnu_mpi/dscf_mpi.
PLEASE WAIT UNTIL dscf HAS FINISHED.
Look for the output in slave1.output.
MACHINEFILE is ./hostlist
@@@@@@@@@@@@@@@@@@@@@@@@@@@@@@@@@@@@@@@@@@@@@@@@@@@@@@@@@@@
@    WARNING: REMOTE HOST IDENTIFICATION HAS CHANGED!     @
@@@@@@@@@@@@@@@@@@@@@@@@@@@@@@@@@@@@@@@@@@@@@@@@@@@@@@@@@@@
IT IS POSSIBLE THAT SOMEONE IS DOING SOMETHING NASTY!
Someone could be eavesdropping on you right now (man-in-the-middle attack)!
It is also possible that a host key has just been changed.
The fingerprint for the RSA key sent by the remote host is
SHA256:qxtCMJWsl6kWSKl0FkGcTYaF83wXaHxKoPuYxFB2h9I.
Please contact your system administrator.
Add correct host key in /export/home/bdnguye2/.ssh/known_hosts to get rid of this message.
Offending RSA key in /export/home/bdnguye2/.ssh/known_hosts:289
Password authentication is disabled to avoid man-in-the-middle attacks.
Keyboard-interactive authentication is disabled to avoid man-in-the-middle attacks.
 this is node-proc. number 1 running on node c-15-24.gp.local
 the total number of node-proc. spawned is  61
  parallel platform: MPP or cluster with fast interconnect

 dscf (c-15-24.gp.local) : TURBOMOLE V7.2 ( 21471 ) 7 Nov 2017 at 16:15:16
 Copyright (C) 2017 TURBOMOLE GmbH, Karlsruhe


    2018-02-14 23:44:23.640 


 SCF run will be profiled !



                             d s c f - program

                   idea & directorship : reinhart ahlrichs
                   program development : marco haeser
                                         michael baer
                           dft version : oliver treutler
           parallelized version : malte v. arnim, gina corongiu, GMD 


                          quantum chemistry group
                          universitaet  karlsruhe
                                  germany




                          References             
                                                 
          TURBOMOLE:                             
              R. Ahlrichs, M. Baer, M. Haeser, H. Horn, and
              C. Koelmel
              Electronic structure calculations on workstation
              computers: the program system TURBOMOLE
              Chem. Phys. Lett. 162: 165 (1989)
          Density Functional:                              
              O. Treutler and R. Ahlrichs                      
              Efficient Molecular Numerical Integration Schemes
              J. Chem. Phys. 102: 346 (1995)                   
          Parallel Version:                                
              Performance of parallel TURBOMOLE for Density    
              Functional Calculations                          
              M. v. Arnim and R. Ahlrichs                      
              J. Comp. Chem. 19: 1746 (1998)                   
                                         




              +--------------------------------------------------+
              | Atomic coordinate, charge and isotop information |
              +--------------------------------------------------+

                    atomic coordinates            atom    charge  isotop
          2.33554567    0.00000000   -6.28856922    c      6.000     0
          0.72172330    2.22123592   -6.28856922    c      6.000     0
         -2.33554567    0.00000000    6.28856922    c      6.000     0
         -0.72172330   -2.22123592    6.28856922    c      6.000     0
          6.04098874    2.69216198    1.12231693    c      6.000     0
         -4.42716638   -4.91339791   -1.12231693    c      6.000     0
          4.42716638    4.91339791    1.12231693    c      6.000     0
         -6.04098874   -2.69216198   -1.12231693    c      6.000     0
         -3.75089898   -4.35600959    3.45786260    c      6.000     0
          5.30190283    2.22123592   -3.45786260    c      6.000     0
         -5.30190283   -2.22123592    3.45786260    c      6.000     0
          3.75089898    4.35600959   -3.45786260    c      6.000     0
         -1.88949613   -1.37279930   -6.28856922    c      6.000     0
          1.88949613    1.37279930    6.28856922    c      6.000     0
         -6.46967567   -1.37279930    1.12231693    c      6.000     0
         -3.30484945   -5.72880889    1.12231693    c      6.000     0
          3.30484945    5.72880889   -1.12231693    c      6.000     0
          6.46967567    1.37279930   -1.12231693    c      6.000     0
          5.30190283   -2.22123592   -3.45786260    c      6.000     0
         -0.47414282    5.72880889   -3.45786260    c      6.000     0
         -5.30190283    2.22123592    3.45786260    c      6.000     0
          0.47414282   -5.72880889    3.45786260    c      6.000     0
          6.46967567   -1.37279930   -1.12231693    c      6.000     0
          0.69363001    6.57724551   -1.12231693    c      6.000     0
         -0.69363001   -6.57724551    1.12231693    c      6.000     0
         -6.46967567    1.37279930    1.12231693    c      6.000     0
         -1.88949613    1.37279930   -6.28856922    c      6.000     0
          0.72172330   -2.22123592   -6.28856922    c      6.000     0
          1.88949613   -1.37279930    6.28856922    c      6.000     0
         -0.72172330    2.22123592    6.28856922    c      6.000     0
         -2.98371978   -4.91339791   -3.45786260    c      6.000     0
         -5.59493921   -1.31936268   -3.45786260    c      6.000     0
          5.59493921    1.31936268    3.45786260    c      6.000     0
          2.98371978    4.91339791    3.45786260    c      6.000     0
          3.70544308    2.69216198    4.90130920    c      6.000     0
         -3.70544308   -2.69216198   -4.90130920    c      6.000     0
          0.47414282    5.72880889    3.45786260    c      6.000     0
          5.59493921   -1.31936268    3.45786260    c      6.000     0
         -0.47414282   -5.72880889   -3.45786260    c      6.000     0
         -5.59493921    1.31936268   -3.45786260    c      6.000     0
         -1.41535331   -4.35600959    4.90130920    c      6.000     0
          4.58017953    0.00000000   -4.90130920    c      6.000     0
         -4.58017953    0.00000000    4.90130920    c      6.000     0
          1.41535331    4.35600959   -4.90130920    c      6.000     0
         -3.30484945    5.72880889    1.12231693    c      6.000     0
         -4.42716638    4.91339791   -1.12231693    c      6.000     0
          4.42716638   -4.91339791    1.12231693    c      6.000     0
          3.30484945   -5.72880889   -1.12231693    c      6.000     0
          3.70544308   -2.69216198    4.90130920    c      6.000     0
         -1.41535331    4.35600959    4.90130920    c      6.000     0
         -3.70544308    2.69216198   -4.90130920    c      6.000     0
          1.41535331   -4.35600959   -4.90130920    c      6.000     0
          3.75089898   -4.35600959   -3.45786260    c      6.000     0
         -2.98371978    4.91339791   -3.45786260    c      6.000     0
          2.98371978   -4.91339791    3.45786260    c      6.000     0
         -3.75089898    4.35600959    3.45786260    c      6.000     0
         -6.04098874    2.69216198   -1.12231693    c      6.000     0
          0.69363001   -6.57724551   -1.12231693    c      6.000     0
          6.04098874   -2.69216198    1.12231693    c      6.000     0
         -0.69363001    6.57724551    1.12231693    c      6.000     0
 
       center of nuclear mass  :    0.00000000    0.00000000    0.00000000
       center of nuclear charge:    0.00000000    0.00000000    0.00000000

              +--------------------------------------------------+
              |               basis set information              |
              +--------------------------------------------------+

              we will work with the 1s 3p 5d 7f 9g ... basis set
              ...i.e. with spherical basis functions...

   type   atoms  prim   cont   basis
   ---------------------------------------------------------------------------
    c       60     77     55   cc-pVQZ   [5s4p3d2f1g|21s6p3d2f1g]
   ---------------------------------------------------------------------------
   total:   60   4620   3300
   ---------------------------------------------------------------------------

   total number of primitive shells          :   33
   total number of contracted shells         :  900
   total number of cartesian basis functions : 4200
   total number of SCF-basis functions       : 3300


 integral neglect threshold       :  0.79E-14
 integral storage threshold THIZE :  0.10E-04
 integral storage threshold THIME :         5


 DENSITY CONVERGENCE CHECK SWITCHED ON !
 SCF CONVERGENCE IF RMS(delta[D]) <     0.1000000000E-06


 symmetry group of the molecule :   c1 

 the group has the following generators :
   c1(z)

    1 symmetry operations found

 there are 1 real representations :   a   

 maximum number of shells which are related by symmetry :  1


    mo occupation :
   irrep   mo's   occupied
    a     3300      180
 
 number of basis functions   :                   3300
 number of occupied orbitals :                    180
 

 automatic virtual orbital shift switched on 
      shift if e(lumo)-e(homo) < 0.10000000    


 keyword $2e-ints_shell_statistics missing in file <control>

 ! One task per shell generated
  No pre-computed optimal task distribution found
  ... using automatic task generation

          ------------------------
          nuclear repulsion energy  :   8327.01285389    
          ------------------------


         -----------------
         -S,T+V- integrals
         -----------------

 1e-integrals will be neglected if expon. factor < 0.795705E-15
 
   Difference densities algorithm switched on.
   The maximal number of linear combinations of
   difference densities is                    20 .

 DIIS switched on: error vector is FDS-SDF
 Max. Iterations for DIIS is     :   5
 DIIS matrix (see manual) 
    Scaling factor of diagonals  :  1.200
    threshold for scaling factor :  0.000

 scf convergence criterion : increment of total energy < .1000000D-08
                  and increment of one-electron energy < .1000000D-05

  MOs are in ASCII format !


 reading orbital data $scfmo  from file mos
 orbital characterization : scfconv=9

 DSCF restart information will be dumped onto file mos

 
                                              current damping :  0.300
 ITERATION  ENERGY          1e-ENERGY        2e-ENERGY     RMS[dD(SAO)]   TOL
   1  -2272.5384766797    -19667.804844     9068.2535138    0.000D+00 0.794D-14
          max. resid. norm for Fia-block=  7.665D-05 for orbital    179a         
          max. resid. fock norm         =  2.364D-03 for orbital   3208a         
          Delta Eig. =     0.1102342685 eV 
 
                                              current damping :  0.250
 ITERATION  ENERGY          1e-ENERGY        2e-ENERGY     RMS[dD(SAO)]   TOL
   2  -2272.5384768585    -19667.807908     9068.2565769    0.114D-04 0.503D-14
          Norm of current diis error: 0.47670E-03
          max. resid. norm for Fia-block=  2.293D-05 for orbital    179a         
          max. resid. fock norm         =  5.463D-04 for orbital   3208a         
          Delta Eig. =     0.0262056705 eV 
 
                                              current damping :  0.200
 ITERATION  ENERGY          1e-ENERGY        2e-ENERGY     RMS[dD(SAO)]   TOL
   3  -2272.5384768767    -19667.807547     9068.2562160    0.387D-05 0.397D-14
          Norm of current diis error: 0.12617E-03
          max. resid. norm for Fia-block=  5.530D-06 for orbital    180a         
          max. resid. fock norm         =  1.090D-04 for orbital   3208a         
          Delta Eig. =     0.0055268002 eV 
 
                                              current damping :  0.250
 ITERATION  ENERGY          1e-ENERGY        2e-ENERGY     RMS[dD(SAO)]   TOL
   4  -2272.5384768775    -19667.808382     9068.2570511    0.999D-06 0.346D-14
          Norm of current diis error: 0.50419E-04
          max. resid. norm for Fia-block=  1.070D-06 for orbital    168a         
          max. resid. fock norm         =  1.824D-05 for orbital   3207a         
          Delta Eig. =     0.0008492871 eV 
 
                                              current damping :  0.300
 ITERATION  ENERGY          1e-ENERGY        2e-ENERGY     RMS[dD(SAO)]   TOL
   5  -2272.5384768783    -19667.808071     9068.2567405    0.184D-06 0.332D-14
          Norm of current diis error: 0.88780E-05
          max. resid. norm for Fia-block=  3.185D-07 for orbital    178a         
          max. resid. fock norm         =  3.642D-06 for orbital   3206a         
 mo-orthogonalization: Cholesky decomposition
          Delta Eig. =     0.0001698841 eV 

 DENSITY CONVERGED !

 
                                              current damping :  0.350
 ITERATION  ENERGY          1e-ENERGY        2e-ENERGY     RMS[dD(SAO)]   TOL
   6  -2272.5384768780    -19667.808102     9068.2567714    0.527D-07 0.315D-14
          Norm of current diis error: 0.28208E-05
          max. resid. norm for Fia-block=  1.019D-07 for orbital    177a         
          max. resid. fock norm         =  1.080D-06 for orbital    618a         
          Delta Eig. =     0.0000375150 eV 

 ENERGY & DENSITY CONVERGED !

 
                                              current damping :  0.200
 ITERATION  ENERGY          1e-ENERGY        2e-ENERGY     RMS[dD(SAO)]   TOL
   7  -2272.5384768781    -19667.808105     9068.2567738    0.151D-07 0.311D-14
          max. resid. norm for Fia-block=  2.711D-08 for orbital    180a         
          max. resid. fock norm         =  6.402D-07 for orbital    749a         

 convergence criteria satisfied after     7 iterations


                  ------------------------------------------ 
                 |  total energy      =  -2272.53847687810  |
                  ------------------------------------------ 
                 :  kinetic energy    =   2268.95962621142  :
                 :  potential energy  =  -4541.49810308952  :
                 :  virial theorem    =      1.99842517489  :
                 :  wavefunction norm =      1.00000000000  :
                  .......................................... 


 orbitals $scfmo  will be written to file mos

    irrep                176a        177a        178a        179a        180a   
 eigenvalues H         -0.28748    -0.28748    -0.28748    -0.28748    -0.28748
            eV          -7.8227     -7.8227     -7.8227     -7.8227     -7.8227
 occupation              2.0000      2.0000      2.0000      2.0000      2.0000 

    irrep                181a        182a        183a        184a        185a   
 eigenvalues H         -0.03086    -0.03086    -0.03086     0.03388     0.03388
            eV          -0.8396     -0.8396     -0.8396      0.9219      0.9219
 
 
 
 
 ==============================================================================
                           electrostatic moments
 ==============================================================================

 reference point for electrostatic moments:    0.00000   0.00000   0.00000

 
              nuc           elec       ->  total
 ------------------------------------------------------------------------------
                          charge      
 ------------------------------------------------------------------------------
         360.000000    -360.000000      -0.000000
 
 ------------------------------------------------------------------------------
                       dipole moment  
 ------------------------------------------------------------------------------
   x       0.000000       0.000000       0.000000
   y       0.000000      -0.000000      -0.000000
   z       0.000000      -0.000000      -0.000000
 
   | dipole moment | =     0.0000 a.u. =     0.0000 debye 
 
 ------------------------------------------------------------------------------
                     quadrupole moment
 ------------------------------------------------------------------------------
  xx    5400.105171   -5654.639381    -254.534210
  yy    5400.105171   -5654.639381    -254.534210
  zz    5400.105171   -5654.639381    -254.534210
  xy      -0.000000      -0.000000      -0.000000
  xz      -0.000000       0.000000       0.000000
  yz      -0.000000       0.000000       0.000000
 
     1/3  trace=    -254.534210
     anisotropy=       0.000000
 
 ==============================================================================
 

    dscf profiling
  --------------------------------------------------------------------
             module   cpu total (s)       %  wall total (s)       %

          dscf.total         18101.4  100.00         16289.7  100.00
        dscf.prepare            38.6    0.21            38.6    0.24
      prepare.oneint             0.9    0.01             0.9    0.01
     prepare.moinput            16.6    0.09            16.6    0.10
     moinput_orthmos            20.5    0.11            20.5    0.13
            dscf.scf         18054.9   99.74         16243.1   99.71
             scf.pre             0.0    0.00             0.0    0.00
        scf.makedmat            11.0    0.06            11.2    0.07
          scf.shloop         15777.1   87.16         15775.8   96.85
          shloop_omp         15774.4   87.14         15773.1   96.83
          scf.symcar             1.9    0.01             1.9    0.01
        scf.makefock             2.3    0.01             2.6    0.02
          scf.newerg             0.1    0.00             0.1    0.00
          scf.newcnv           552.8    3.05            18.9    0.12
           scf.fdiag          1230.1    6.80            41.5    0.25
         diag_tritrn           395.2    2.18            13.3    0.08
          diag_rdiag           817.6    4.52            27.4    0.17
          scf.modump           341.7    1.89           322.7    1.98
           ortho_all            76.1    0.42            13.8    0.08
            scf.post            58.2    0.32            54.4    0.33
        dscf.postscf             7.9    0.04             8.0    0.05
 


    ------------------------------------------------------------------------
         total  cpu-time :  5 hours  1 minutes and 47 seconds
         total wall-time :  4 hours 31 minutes and 36 seconds
    ------------------------------------------------------------------------

   ****  dscf : all done  ****


    2018-02-15 04:15:53.474 

