Using Slurm to start processes with PMI2
STARTING ridft ON 8 PROCESSORS!
RUNNING PROGRAM /beegfs/modfac/apps/TURBOMOLE/7.0_intel_GA/bin/em64t-unknown-linux-gnu_mpi/ridft_mpi.
PLEASE WAIT UNTIL ridft HAS FINISHED.
Look for the output in slave1.output.
  this is node-proc. number 1 running on node c-9-371.local
  the total number of node-proc. spawned is            8
  parallel platform: MPP, or cluster with fast interconnect

 ridft (c-9-371.local) : TURBOMOLE V7.0.2( ) 15 Jan 2016 at 17:47:42
 Copyright (C) 2016 TURBOMOLE GmbH, Karlsruhe


    2017-11-01 20:15:53.872 



                                  r i d f t

                        DFT program with RI approximation 
                                for coulomb part 




                                                 
                                 References:     
                                                 
          TURBOMOLE:                             
              R. Ahlrichs, M. Baer, M. Haeser, H. Horn, and
              C. Koelmel
              Electronic structure calculations on workstation
              computers: the program system TURBOMOLE
              Chem. Phys. Lett. 162: 165 (1989)
          Density Functional:                              
              O. Treutler and R. Ahlrichs                      
              Efficient Molecular Numerical Integration Schemes
              J. Chem. Phys. 102: 346 (1995)                   
          Parallel Version:                                
              Performance of parallel TURBOMOLE for Density    
              Functional Calculations                          
              M. v. Arnim and R. Ahlrichs                      
              J. Comp. Chem. 19: 1746 (1998)                   
          RI-J Method:                                     
              Auxiliary Basis Sets to approximate Coulomb      
              Potentials                                       
              Chem. Phys. Lett. 240: 283 (1995)                
              K. Eichkorn, O. Treutler, H. Oehm, M. Haeser     
              and R. Ahlrichs                                  
              Chem. Phys. Lett. 242: 652 (1995)                
                                                           
              Auxiliary Basis Sets for Main Row Atoms and their
              Use to approximate Coulomb Potentials            
              K. Eichkorn, F. Weigend, O. Treutler and         
              R. Ahlrichs                                      
              Theo. Chem. Acc. 97: 119 (1997)                   
                                                           
              Accurate Coulomb-fitting basis sets for H to Rn 
              F. Weigend                                        
              Phys. Chem. Chem. Phys. 8: 1057 (2006)            
                                                           
          Multipole accelerated RI-J (MARI-J):             
              Fast evaluation of the Coulomb potential for     
              electron densities using multipole accelerated   
              resolution of identity approximation             
              M. Sierka, A. Hogekamp and R. Ahlrichs           
              J. Chem. Phys. 118: 9136 (2003)                  
          RI-JK Method:                                     
              A fully direct RI-HF algorithm: Implementation,
              optimised auxiliary basis sets, demonstration of
              accuracy and efficiency                         
              F. Weigend                                      
              Phys. Chem. Chem. Phys. 4: 4285 (2002)           
          Two-component HF and DFT with spin-orbit coupling:  
              Self-consistent treatment of spin-orbit         
              interactions with efficient Hartree-Fock and    
              density functional methods                      
              M. K. Armbruster, F. Weigend, C. van Wüllen and 
              W. Klopper                                      
              Phys. Chem. Chem. Phys. 10: 1748 (2008)         
          Relativistic all-electron 2c calculations           
              An efficient implementation of two-component    
              relativistic exact-decoupling methods for large 
              molecules                                       
              D. Peng, N. Middendorf, F. Weigend, M. Reiher   
              J. Chem. Phys. 138, 184105 (2013)               
                                         


 


              +--------------------------------------------------+
              |      general information about current run       |
              +--------------------------------------------------+

 

 SCF run will be profiled !


 DENSITY CONVERGENCE CHECK SWITCHED ON !
 SCF CONVERGENCE IF RMS(delta[D]) <     0.1000000000E-06

 PBE functional
 exchange:    LDA + PBE
 correlation: LDA (PW) + PBE
 A DFT calculation using the RI-J approximation will be carried out.
 Allocatable memory for RI due to $ricore (MB):       10000


              +--------------------------------------------------+
              | Atomic coordinate, charge and isotop information |
              +--------------------------------------------------+

                    atomic coordinates            atom    charge  isotop
          2.32189157   -2.75009463    0.00000000    c      6.000     0
          2.41201204   -5.42607666    0.00000000    c      6.000     0
          4.68944875   -6.70760521    0.00000000    c      6.000     0
          6.99535872   -5.37251634    0.00000000    c      6.000     0
          6.97385760   -2.76403911    0.00000000    c      6.000     0
          4.66611838   -1.40934509    0.00000000    c      6.000     0
          0.67451752   -6.51286780    0.00000000    h      1.000     0
          4.69902021   -8.76051486    0.00000000    h      1.000     0
          8.77466192   -6.39610823    0.00000000    h      1.000     0
          8.73444722   -1.70448913    0.00000000    h      1.000     0
          4.63876762    1.28488584    0.00000000    c      6.000     0
         -0.02723624   -1.34052637    0.00000000    c      6.000     0
          0.02721924    1.34051087    0.00000000    c      6.000     0
          2.41604699    2.59922627    0.00000000    c      6.000     0
         -2.41607099   -2.59923590    0.00000000    c      6.000     0
         -2.32191103    2.75007252    0.00000000    c      6.000     0
         -4.66614805    1.40933375    0.00000000    c      6.000     0
         -4.63879748   -1.28489717    0.00000000    c      6.000     0
          6.43298737    2.28580876    0.00000000    h      1.000     0
          2.47956805    4.64710793    0.00000000    h      1.000     0
         -2.47959640   -4.64712285    0.00000000    h      1.000     0
         -2.41199787    5.42605512    0.00000000    c      6.000     0
         -6.97387461    2.76404969    0.00000000    c      6.000     0
         -6.43302989   -2.28578476    0.00000000    h      1.000     0
         -6.99533566    5.37252125    0.00000000    c      6.000     0
         -4.68942456    6.70759651    0.00000000    c      6.000     0
         -8.73447689    1.70452371    0.00000000    h      1.000     0
         -8.77459256    6.39619006    0.00000000    h      1.000     0
         -4.69893707    8.76050976    0.00000000    h      1.000     0
         -0.67449390    6.51283151    0.00000000    h      1.000     0
 
       center of nuclear mass  :   -0.00000364   -0.00000408    0.00000000
       center of nuclear charge:   -0.00000315   -0.00000353    0.00000000

              +--------------------------------------------------+
              |               basis set information              |
              +--------------------------------------------------+

              we will work with the 1s 3p 5d 7f 9g ... basis set
              ...i.e. with spherical basis functions...

   type   atoms  prim   cont   basis
   ---------------------------------------------------------------------------
    c       18     77     55   cc-pVQZ   [5s4p3d2f1g|21s6p3d2f1g]
    h       12     32     30   cc-pVQZ   [4s3p2d1f|6s3p2d1f]
   ---------------------------------------------------------------------------
   total:   30   1770   1350
   ---------------------------------------------------------------------------

   total number of primitive shells          :   45
   total number of contracted shells         :  390
   total number of cartesian basis functions : 1680
   total number of SCF-basis functions       : 1350


 integral neglect threshold       :  0.20E-13
 integral storage threshold THIZE :  0.10E-04
 integral storage threshold THIME :         5

 RI-J AUXILIARY BASIS SET information:

              we will work with the 1s 3p 5d 7f 9g ... basis set
              ...i.e. with spherical basis functions...

   type   atoms  prim   cont   basis
   ---------------------------------------------------------------------------
    c       18     70     49   cc-pVQZ   [6s4p3d1f1g|12s5p4d2f1g]
    h       12     16     11   cc-pVQZ   [3s1p1d|5s2p1d]
   ---------------------------------------------------------------------------
   total:   30   1452   1014
   ---------------------------------------------------------------------------

   total number of primitive shells          :   32
   total number of contracted shells         :  330
   total number of cartesian basis functions : 1242
   total number of SCF-basis functions       : 1014


 symmetry group of the molecule :   c1 

 the group has the following generators :
   c1(z)

    1 symmetry operations found

 there are 1 real representations :   a   

 maximum number of shells which are related by symmetry :  1


    mo occupation :
   irrep   mo's   occupied
    a     1350       60
 
 number of basis functions   :         1350
 number of occupied orbitals :           60
 
  
           ------------------
           density functional
           ------------------
 PBE functional
 exchange:    LDA + PBE
 correlation: LDA (PW) + PBE
 grinp -> nfun, dfgga, dfhybrid 
           6 T F
 iterations will be done with small grid
  
 spherical integration : Lebedev's spherical grid
 spherical gridsize    :           5
    i.e. gridpoints    :         590
 value for diffuse not defined
 radial integration    : Chebyshev 2nd kind (scaling 3)
 radial gridsize       :           8
 integration cells     :          30
 partition function    : becke
 partition sharpness   :           3
  

 <rddim> : input of entry tasksize
           from data group '$pardft' failed !

               Default values taken

 <rddim> : input of entry memdiv
           from data group '$pardft' failed !

               Default values taken
  RIDFT: memory allocation for DFT gridpoints
  MEMORY is divided by 1 as DEFAULT
 Each node can hold at most  the            1 -th part
 of the gridpoints    

 biggest AO integral is expected to be     3.537514283
  
           ------------------------
               RI-J - INFORMATION
           ------------------------
 
 
 **************************************************
 *      MEMORY ALLOCATION FOR PARALLEL RI-DFT     *
 **************************************************
 
 
MEMORY FOR (MU NU/ ALPHA), SEQUENTIAL RUN               9992 MByte
 
            DIFFERENCE IN MEMORY NEED:       DIAG./SLAVE  
 
      TOTAL DIFFERENCE :                     83 MByte
 
      difference in xcore:                    9 MByte
      difference in fatmat:                  25 MByte
      getcor calls skipped by slaves:        50 MByte
 
 
           Integral memory available for diagonal.      9992 MByte
 
           Integral memory available for slave             0 MByte
 
         MEMORY FOR (MU NU/ ALPHA) ON DIAGONALIZER      9992 MByte
 
         MEMORY FOR (MU NU/ ALPHA) ON ONE SLAVE            0 MByte
 
         TOTAL MEMORY FOR (MU NU/ ALPHA),ALL NODES      9992 MByte
 
 Contributions to RI integral batches: 
  neglected integral batches:       27498
  direct contribution:                  0
  memory contribution:       48747
 Memory core needed for (P|Q) and Cholesky      8 MByte
 Memory core minimum needed except of (P|Q)     8 MByte
 Total minimum memory core needed (sum)        16 MByte
  
 ****************************************
 Memory allocated for RI-J 10007 MByte
 ****************************************
                                            

          ------------------------
          nuclear repulsion energy  :   1136.56938903    
          ------------------------

 
          -----------------
          -S integrals
          -----------------

 1e-integrals will be neglected if expon. factor < 0.198926E-14
 
          -----------------
          -T+V integrals
          -----------------

 1e-integrals will be neglected if expon. factor < 0.198926E-14
 Difference densities >>NOT<< switched on in parallel ridft!

 automatic virtual orbital shift switched on 
      shift if e(lumo)-e(homo) < 0.10000000    


 DIIS switched on: error vector is FDS-SDF
 Max. Iterations for DIIS is     :   4
 DIIS matrix (see manual) 
    Scaling factor of diagonals  :  1.200
    threshold for scaling factor :  0.000

 scf convergence criterion : increment of total energy < .1000000D-08
                  and increment of one-electron energy < .1000000D-05


 <geterg> : there is no data group $energy 

  MOs are in ASCII format !


 reading orbital data $scfmo  from file mos . 

 orbital characterization : expanded
 
 mo provided and orthogonalized by Cholesky decomposition

 DSCF restart information will be dumped onto file mos


 Starting SCF iterations


 ITERATION  ENERGY          1e-ENERGY        2e-ENERGY     RMS[dD(SAO)]   TOL
   1  -690.55095442898    -3162.3513170     1335.2309736    0.000D+00 0.198D-13
                            Exc = -98.7718762268     Coul =  1434.00284980    
                              N = 120.00038627    
                            current damping = 0.700
 
          max. resid. norm for Fia-block=  2.684D-01 for orbital     11a         
          max. resid. fock norm         =  7.363D+00 for orbital   1238a         

 ITERATION  ENERGY          1e-ENERGY        2e-ENERGY     RMS[dD(SAO)]   TOL
   2  -692.13683996745    -3182.0526263     1353.3463973    0.122D-01 0.198D-13
                            Exc = -100.471459170     Coul =  1453.81785651    
                              N = 120.00027307    
                            current damping = 0.650
 
          Norm of current diis error:  4.6651    
          max. resid. norm for Fia-block=  1.152D-01 for orbital     21a         
          max. resid. fock norm         =  1.362D-01 for orbital     20a         

 ITERATION  ENERGY          1e-ENERGY        2e-ENERGY     RMS[dD(SAO)]   TOL
   3  -692.45503491287    -3186.2826430     1357.2582190    0.357D-02 0.198D-13
                            Exc = -100.916226122     Coul =  1458.17444516    
                              N = 120.00021490    
                            current damping = 0.550
 
          Norm of current diis error:  2.2296    
          max. resid. norm for Fia-block=  5.716D-02 for orbital     20a         
          max. resid. fock norm         =  6.505D-02 for orbital     20a         

 ITERATION  ENERGY          1e-ENERGY        2e-ENERGY     RMS[dD(SAO)]   TOL
   4  -692.54465818950    -3190.1261570     1361.0121098    0.121D-02 0.198D-13
                            Exc = -101.216709180     Coul =  1462.22881899    
                              N = 120.00018415    
                            current damping = 0.450
 
          Norm of current diis error: 0.83741    
          max. resid. norm for Fia-block=  2.240D-02 for orbital     20a         
          max. resid. fock norm         =  2.582D-02 for orbital     20a         

 ITERATION  ENERGY          1e-ENERGY        2e-ENERGY     RMS[dD(SAO)]   TOL
   5  -692.55865958897    -3190.6342198     1361.5061712    0.472D-03 0.198D-13
                            Exc = -101.312236678     Coul =  1462.81840789    
                              N = 120.00016786    
                            current damping = 0.300
 
          Norm of current diis error: 0.34993    
          max. resid. norm for Fia-block=  7.920D-03 for orbital     21a         
          max. resid. fock norm         =  1.399D-02 for orbital      7a         
          mo-orthogonalization: Cholesky decomposition

 ITERATION  ENERGY          1e-ENERGY        2e-ENERGY     RMS[dD(SAO)]   TOL
   6  -692.56044166134    -3191.8427978     1362.7129671    0.165D-03 0.198D-13
                            Exc = -101.373319195     Coul =  1464.08628626    
                              N = 120.00016411    
                            current damping = 0.200
 
          Norm of current diis error: 0.21470    
          max. resid. norm for Fia-block=  3.457D-03 for orbital     59a         
          max. resid. fock norm         =  6.758D-03 for orbital   1336a         

 ITERATION  ENERGY          1e-ENERGY        2e-ENERGY     RMS[dD(SAO)]   TOL
   7  -692.56131385107    -3191.4655767     1362.3348738    0.615D-04 0.198D-13
                            Exc = -101.374622324     Coul =  1463.70949610    
                              N = 120.00016126    
                            current damping = 0.250
 
          Norm of current diis error: 0.74360E-01
          max. resid. norm for Fia-block=  1.623D-03 for orbital     57a         
          max. resid. fock norm         =  3.010D-03 for orbital   1340a         

 ITERATION  ENERGY          1e-ENERGY        2e-ENERGY     RMS[dD(SAO)]   TOL
   8  -692.56136062049    -3191.5643760     1362.4336263    0.200D-04 0.198D-13
                            Exc = -101.372991439     Coul =  1463.80661776    
                              N = 120.00016121    
                            current damping = 0.300
 
          Norm of current diis error: 0.57407E-01
          max. resid. norm for Fia-block=  7.887D-04 for orbital     57a         
          max. resid. fock norm         =  1.745D-03 for orbital   1340a         

 ITERATION  ENERGY          1e-ENERGY        2e-ENERGY     RMS[dD(SAO)]   TOL
   9  -692.56143442581    -3191.5334728     1362.4026494    0.995D-05 0.198D-13
                            Exc = -101.374149765     Coul =  1463.77679912    
                              N = 120.00016118    
                            current damping = 0.350
 
          Norm of current diis error: 0.10558E-01
          max. resid. norm for Fia-block=  2.791D-04 for orbital     60a         
          max. resid. fock norm         =  6.617D-04 for orbital   1346a         

 ITERATION  ENERGY          1e-ENERGY        2e-ENERGY     RMS[dD(SAO)]   TOL
  10  -692.56143434401    -3191.5795102     1362.4486868    0.356D-05 0.198D-13
                            Exc = -101.375780555     Coul =  1463.82446737    
                              N = 120.00016117    
                            current damping = 0.400
 
          Norm of current diis error: 0.10760E-01
          max. resid. norm for Fia-block=  1.209D-04 for orbital     60a         
          max. resid. fock norm         =  2.326D-04 for orbital   1346a         
          mo-orthogonalization: Cholesky decomposition

 ITERATION  ENERGY          1e-ENERGY        2e-ENERGY     RMS[dD(SAO)]   TOL
  11  -692.56143671382    -3191.5630788     1362.4322531    0.140D-05 0.198D-13
                            Exc = -101.375458229     Coul =  1463.80771129    
                              N = 120.00016114    
                            current damping = 0.450
 
          Norm of current diis error: 0.37354E-02
          max. resid. norm for Fia-block=  6.300D-05 for orbital     59a         
          max. resid. fock norm         =  1.415D-04 for orbital   1333a         

 ITERATION  ENERGY          1e-ENERGY        2e-ENERGY     RMS[dD(SAO)]   TOL
  12  -692.56143697809    -3191.5547999     1362.4239739    0.650D-06 0.198D-13
                            Exc = -101.375053058     Coul =  1463.79902697    
                              N = 120.00016114    
                            current damping = 0.300
 
          Norm of current diis error: 0.16709E-02
          max. resid. norm for Fia-block=  2.662D-05 for orbital     58a         
          max. resid. fock norm         =  5.424D-05 for orbital   1336a         

 ITERATION  ENERGY          1e-ENERGY        2e-ENERGY     RMS[dD(SAO)]   TOL
  13  -692.56143703339    -3191.5546978     1362.4238718    0.342D-06 0.198D-13
                            Exc = -101.375050362     Coul =  1463.79892212    
                              N = 120.00016114    
                            current damping = 0.150
 
          Norm of current diis error: 0.58772E-03
          max. resid. norm for Fia-block=  7.715D-06 for orbital     58a         
          max. resid. fock norm         =  1.722D-05 for orbital   1343a         

 ITERATION  ENERGY          1e-ENERGY        2e-ENERGY     RMS[dD(SAO)]   TOL
  14  -692.56143704036    -3191.5542568     1362.4234307    0.106D-06 0.198D-13
                            Exc = -101.375047516     Coul =  1463.79847820    
                              N = 120.00016114    
                            current damping = 0.050
 
          Norm of current diis error: 0.17078E-03
          max. resid. norm for Fia-block=  3.166D-06 for orbital     60a         
          max. resid. fock norm         =  7.722D-06 for orbital   1341a         

 DENSITY CONVERGED !


 ITERATION  ENERGY          1e-ENERGY        2e-ENERGY     RMS[dD(SAO)]   TOL
  15  -692.56143704035    -3191.5544904     1362.4236643    0.488D-07 0.198D-13
                            Exc = -101.375043125     Coul =  1463.79870746    
                              N = 120.00016114    
                            current damping = 0.100
 
          Norm of current diis error: 0.17525E-03
          max. resid. norm for Fia-block=  1.444D-06 for orbital     60a         
          max. resid. fock norm         =  3.366D-06 for orbital   1341a         
          mo-orthogonalization: Cholesky decomposition

 DENSITY CONVERGED !


 ITERATION  ENERGY          1e-ENERGY        2e-ENERGY     RMS[dD(SAO)]   TOL
  16  -692.56143704097    -3191.5544481     1362.4236221    0.210D-07 0.198D-13
                            Exc = -101.375046558     Coul =  1463.79866863    
                              N = 120.00016114    
                            current damping = 0.150
 
          Norm of current diis error: 0.38581E-04
          max. resid. norm for Fia-block=  7.031D-07 for orbital     58a         
          max. resid. fock norm         =  1.650D-06 for orbital   1346a         

 DENSITY CONVERGED !


 ITERATION  ENERGY          1e-ENERGY        2e-ENERGY     RMS[dD(SAO)]   TOL
  17  -692.56143704099    -3191.5543675     1362.4235414    0.941D-08 0.198D-13
                            Exc = -101.375045263     Coul =  1463.79858665    
                              N = 120.00016114    
                            current damping = 0.050
 
          Norm of current diis error: 0.26569E-04
          max. resid. norm for Fia-block=  4.494D-07 for orbital     58a         
          max. resid. fock norm         =  1.044D-06 for orbital   1346a         

 DENSITY CONVERGED !


 ITERATION  ENERGY          1e-ENERGY        2e-ENERGY     RMS[dD(SAO)]   TOL
  18  -692.56143704101    -3191.5544070     1362.4235810    0.559D-08 0.198D-13
                            Exc = -101.375046121     Coul =  1463.79862708    
                              N = 120.00016114    
                            current damping = 0.100
 
          Norm of current diis error: 0.10839E-04
          max. resid. norm for Fia-block=  1.983D-07 for orbital     58a         
          max. resid. fock norm         =  3.849D-07 for orbital     13a         

 ENERGY & DENSITY CONVERGED !


 ITERATION  ENERGY          1e-ENERGY        2e-ENERGY     RMS[dD(SAO)]   TOL
  19  -692.56141442968    -3191.5543927     1362.4235893    0.250D-08 0.198D-13
                            Exc = -101.375023647     Coul =  1463.79861291    
                              N = 120.00000520    
                            current damping = 0.150
 
          Norm of current diis error: 0.70009E-05
          max. resid. norm for Fia-block=  8.738D-08 for orbital     57a         
          max. resid. fock norm         =  1.696D-07 for orbital   1340a         

 End of SCF iterations

   convergence criteria satisfied after   19 iterations


                  ------------------------------------------ 
                 |  total energy      =   -692.56141442968  |
                  ------------------------------------------ 
                 :  kinetic energy    =    689.16304898043  :
                 :  potential energy  =  -1381.72446341011  :
                 :  virial theorem    =      1.99509304824  :
                 :  wavefunction norm =      1.00000000000  :
                  .......................................... 


 <geterg> : there is no data group $energy 


 <skperg> : $end is missing 


 orbitals $scfmo  will be written to file mos

    irrep                 56a         57a         58a         59a         60a   
 eigenvalues H         -0.25942    -0.25288    -0.22277    -0.20978    -0.19279
            eV          -7.0594     -6.8813     -6.0619     -5.7084     -5.2461
 occupation              2.0000      2.0000      2.0000      2.0000      2.0000 

    irrep                 61a         62a         63a         64a         65a   
 eigenvalues H         -0.08361    -0.07060    -0.06133    -0.02312    -0.02153
            eV          -2.2752     -1.9211     -1.6688     -0.6292     -0.5858
 
 
 ! grave: sending quit signal to master process
 
 
 
 
 ==============================================================================
                           electrostatic moments
 ==============================================================================

 reference point for electrostatic moments:    0.00000   0.00000   0.00000

 
              nuc           elec       ->  total
 ------------------------------------------------------------------------------
                          charge      
 ------------------------------------------------------------------------------
         120.000000    -120.000000      -0.000000
 
 ------------------------------------------------------------------------------
                       dipole moment  
 ------------------------------------------------------------------------------
   x      -0.000378       0.000386       0.000008
   y      -0.000424       0.000434       0.000010
   z       0.000000       0.000000       0.000000
 
   | dipole moment | =     0.0000 a.u. =     0.0000 debye 
 
 ------------------------------------------------------------------------------
                     quadrupole moment
 ------------------------------------------------------------------------------
  xx    2605.488622   -2673.295748     -67.807126
  yy    1947.894432   -2015.662689     -67.768257
  zz       0.000000     -82.815006     -82.815006
  xy   -1405.719116    1405.526326      -0.192791
  xz       0.000000      -0.000000      -0.000000
  yz       0.000000       0.000000       0.000000
 
     1/3  trace=     -72.796796
     anisotropy=      15.031061
 
 ==============================================================================
 

    ridft profiling
  --------------------------------------------------------------------
             module   cpu total (s)       %  wall total (s)       %

               RIDFT           304.8  100.00           305.7  100.00
         Ridft_b_scf            32.2   10.57            32.2   10.54
        b_scf_prelim             0.0    0.00             0.0    0.00
        b_scf_molinp             0.0    0.00             0.0    0.00
         b_scf_init0             0.0    0.00             0.0    0.00
        b_scf_auxbas             0.0    0.00             0.0    0.00
      b_scf_symmetry             0.0    0.00             0.0    0.00
         b_scf_cosmo             0.0    0.00             0.0    0.00
        b_scf_params             2.2    0.73             2.2    0.73
          b_scf_ri-j            26.6    8.73            26.6    8.71
    b_scf_ri-j_auxpq            26.6    8.73            26.6    8.70
     ri-j_auxpq_chol             0.1    0.03             0.1    0.03
         b_scf_1elec             0.7    0.24             0.7    0.24
       b_scf_moinput             2.6    0.86             2.6    0.86
     moinput_orthmos             2.5    0.83             2.5    0.83
    b_scf_dft-dstmax             0.0    0.00             0.0    0.00
           Ridft_scf           272.4   89.36           273.3   89.38
          Scf_b_loop             0.0    0.00             0.0    0.00
                noga             0.0    0.00             0.0    0.00
            Scf_loop           271.3   89.01           272.2   89.03
     scf_loop_mkdmat             1.4    0.46             1.6    0.51
       scf_loop_ri-j            23.5    7.72            23.5    7.70
      parlp1.bc.dens             1.0    0.34             1.0    0.34
        parlp1.gs.gp             0.0    0.00             0.0    0.00
        parlp2.bc.gq             0.0    0.00             0.0    0.00
        scf_loop_dft           198.3   65.04           198.3   64.88
      pardft.bc.dens             0.0    0.00             0.0    0.00
        dft_grid_con             0.4    0.12             0.4    0.12
           dft_xcrhf           195.1   64.02           195.2   63.85
          dft_getval            13.5    4.42            13.5    4.40
          funct2 dst             0.1    0.04             0.1    0.05
      funct2 f2loop1             3.5    1.15             3.5    1.16
      funct2 f2loop2             6.3    2.08             6.3    2.06
          funct2 s+c             3.3    1.08             3.2    1.06
        funct2 cmf_2             2.9    0.95             2.9    0.94
          dft_mkdens            73.9   24.25            73.9   24.18
         dft_gga-fun             0.2    0.06             0.2    0.07
          dft_mkfock           107.4   35.24           107.4   35.14
     pardft.red.fock            12.8    4.21            12.8    4.20
     scf_loop_energy             0.0    0.01             0.0    0.01
     scf_loop_mkfock             0.0    0.01             0.0    0.01
       scf_loop_diis            13.3    4.35            13.3    4.35
       scf_loop_diag            14.1    4.63            14.1    4.62
         diag_tritrn             3.5    1.14             3.5    1.14
          diag_rdiag            10.6    3.46            10.6    3.45
     scf_loop_modump            17.5    5.75            18.1    5.93
      scf_loop_ortho             2.6    0.86             2.6    0.86
          Scf_a_loop             1.1    0.35             1.1    0.35
         Ridft_a_scf             0.2    0.07             0.2    0.08
         a_scf_fanal             0.2    0.06             0.2    0.07
 


    ------------------------------------------------------------------------
         total  cpu-time :  5 minutes and  6 seconds
         total wall-time :  5 minutes and  7 seconds
    ------------------------------------------------------------------------


   ****  ridft : all done  ****


    2017-11-01 20:21:01.270 

