STARTING ridft ON 16 PROCESSORS!
RUNNING PROGRAM /sopt/TURBOMOLE/7.3-official/bin/em64t-unknown-linux-gnu_smp/ridft_mpi.
           SMPCPUS    set: Shared-memory Parallelization with  16 CPUs.

           SMP Parallelization Reference:
           C. van Wullen, J. Comput. Chem. 32 (2011) 1195--1201
 operating system is UNIX !

 ridft (c-14-38) : TURBOMOLE V7.3 ( 22118 ) 1 Jul 2018 at 20:38:15
 Copyright (C) 2018 TURBOMOLE GmbH, Karlsruhe


    2019-03-12 22:50:28.866 



                                  r i d f t

                        DFT program with RI approximation 
                                for coulomb part 




                                                 
                                 References:     
                                                 
          TURBOMOLE:                             
              R. Ahlrichs, M. Baer, M. Haeser, H. Horn, and
              C. Koelmel
              Electronic structure calculations on workstation
              computers: the program system TURBOMOLE
              Chem. Phys. Lett. 162: 165 (1989)
          Density Functional:                              
              O. Treutler and R. Ahlrichs                      
              Efficient Molecular Numerical Integration Schemes
              J. Chem. Phys. 102: 346 (1995)                   
          Parallel Version:                                
              Performance of parallel TURBOMOLE for Density    
              Functional Calculations                          
              M. v. Arnim and R. Ahlrichs                      
              J. Comp. Chem. 19: 1746 (1998)                   
          RI-J Method:                                     
              Auxiliary Basis Sets to approximate Coulomb      
              Potentials                                       
              Chem. Phys. Lett. 240: 283 (1995)                
              K. Eichkorn, O. Treutler, H. Oehm, M. Haeser     
              and R. Ahlrichs                                  
              Chem. Phys. Lett. 242: 652 (1995)                
                                                           
              Auxiliary Basis Sets for Main Row Atoms and their
              Use to approximate Coulomb Potentials            
              K. Eichkorn, F. Weigend, O. Treutler and         
              R. Ahlrichs                                      
              Theo. Chem. Acc. 97: 119 (1997)                   
                                                           
              Accurate Coulomb-fitting basis sets for H to Rn 
              F. Weigend                                        
              Phys. Chem. Chem. Phys. 8: 1057 (2006)            
                                                           
          Multipole accelerated RI-J (MARI-J):             
              Fast evaluation of the Coulomb potential for     
              electron densities using multipole accelerated   
              resolution of identity approximation             
              M. Sierka, A. Hogekamp and R. Ahlrichs           
              J. Chem. Phys. 118: 9136 (2003)                  
          RI-JK Method:                                     
              A fully direct RI-HF algorithm: Implementation,
              optimised auxiliary basis sets, demonstration of
              accuracy and efficiency                         
              F. Weigend                                      
              Phys. Chem. Chem. Phys. 4: 4285 (2002)           
          Two-component HF and DFT with spin-orbit coupling:  
              Self-consistent treatment of spin-orbit         
              interactions with efficient Hartree-Fock and    
              density functional methods                      
              M. K. Armbruster, F. Weigend, C. van Wüllen and 
              W. Klopper                                      
              Phys. Chem. Chem. Phys. 10: 1748 (2008)         
          Two-component difference density and DIIS algorithm 
              Efficient two-component self-consistent field   
              procedures and gradients: implementation in     
              TURBOMOLE and application to Au20-              
              A. Baldes, F. Weigend                           
              Mol. Phys. 111: 2617 (2013)                     
          Relativistic all-electron 2c calculations           
              An efficient implementation of two-component    
              relativistic exact-decoupling methods for large 
              molecules                                       
              D. Peng, N. Middendorf, F. Weigend, M. Reiher   
              J. Chem. Phys. 138: 184105 (2013)               
          Finite nucleus model and SNSO approximation         
              Efficient implementation of one- and two-       
              component analytical energy gradients in exact  
              two-component theory                            
              Y. J. Franzke, N. Middendorf, F. Weigend        
              J. Chem. Phys. 148: 104110 (2018)               
                                         




              +--------------------------------------------------+
              |      general information about current run       |
              +--------------------------------------------------+

 
 PBE functional
 exchange:    LDA + PBE
 correlation: LDA (PW) + PBE
 A DFT calculation using the RI-J approximation will be carried out.
 Allocatable memory for RI due to $ricore (MB):                  8000


              +--------------------------------------------------+
              | Atomic coordinate, charge and isotop information |
              +--------------------------------------------------+

                    atomic coordinates            atom    charge  isotop
          3.95570402    1.73346725    0.40080572    o      8.000     0
          2.41082001    0.79564817    0.07359415    h      1.000     0
          5.05533840    1.24497707   -0.95175838    h      1.000     0
 
       center of nuclear mass  :    3.93079202    1.65366432    0.30682118
       center of nuclear charge:    3.91117906    1.59083633    0.23282815

              +--------------------------------------------------+
              |               basis set information              |
              +--------------------------------------------------+

              we will work with the 1s 3p 5d 7f 9g ... basis set
              ...i.e. with spherical basis functions...

   type   atoms  prim   cont   basis
   ---------------------------------------------------------------------------
    o        1     68     48   def2-QZVP   [7s4p3d2f|15s8p3d2f]
    h        2     26     23   def2-QZVP   [4s3p2d|7s3p2d]
   ---------------------------------------------------------------------------
   total:    3    120     94
   ---------------------------------------------------------------------------

   total number of primitive shells          :   40
   total number of contracted shells         :   34
   total number of cartesian basis functions :  107
   total number of SCF-basis functions       :   94


 integral neglect threshold       :  0.31E-10
 integral storage threshold THIZE :  0.10E-04
 integral storage threshold THIME :         5

 RI-J AUXILIARY BASIS SET information:

              we will work with the 1s 3p 5d 7f 9g ... basis set
              ...i.e. with spherical basis functions...

   type   atoms  prim   cont   basis
   ---------------------------------------------------------------------------
    o        1     70     49   def2-QZVP   [6s4p3d1f1g|12s5p4d2f1g]
    h        2     16     11   def2-QZVP   [3s1p1d|5s2p1d]
   ---------------------------------------------------------------------------
   total:    3    102     71
   ---------------------------------------------------------------------------

   total number of primitive shells          :   32
   total number of contracted shells         :   25
   total number of cartesian basis functions :   85
   total number of SCF-basis functions       :   71


 symmetry group of the molecule :   c1 

 the group has the following generators :
   c1(z)

    1 symmetry operations found

 there are 1 real representations :   a   

 maximum number of shells which are related by symmetry :  1


    mo occupation :
   irrep   mo's   occupied
    a       94        5
 
 number of basis functions   :                     94
 number of occupied orbitals :                      5
 
  
           ------------------
           density functional
           ------------------
 PBE functional
 exchange:    LDA + PBE
 correlation: LDA (PW) + PBE

 iterations will be done with small grid
  
 spherical integration : Lebedev's spherical grid
 spherical gridsize    :                     4
    i.e. gridpoints    :                   434
 value for diffuse not defined
 radial integration    : Chebyshev 2nd kind (scaling 3)
 radial gridsize       :                     6
 integration cells     :                     3
 partition function    : becke
 partition sharpness   :                     3
  

 biggest AO integral is expected to be     6.990327543
  
           ------------------------
               RI-J - INFORMATION
           ------------------------
 Contributions to RI integral batches: 
  neglected integral batches:                     0
  direct contribution:                            0
  memory contribution:                   595
 Memory core needed for (P|Q) and Cholesky      1 MByte
 Memory core minimum needed except of (P|Q)     1 MByte
 Total minimum memory core needed (sum)         1 MByte
  
 ****************************************
 Memory allocated for RI-J     4 MByte
 ****************************************
                                            

          ------------------------
          nuclear repulsion energy  :   9.12312495286    
          ------------------------

  _________________________________
 |                                 |
 |         DFTD3 V3.1 Rev 0        |
 | S.Grimme, University Bonn       |
 |            June  2014           |
 |   see standalone version        |
 |       dftd3 -h for options      |
 |_________________________________|
 
 Please cite DFT-D3 work done with this code as:
 S. Grimme, J. Antony, S. Ehrlich and H. Krieg,
 J. Chem. Phys, 132 (2010), 154104.
 If used with BJ-damping cite also
 S. Grimme, S. Ehrlich and L. Goerigk,
 J. Comput. Chem. 32 (2011), 1456-1465
 For DFT-D2 the reference is
 S. Grimme, J. Comput. Chem., 27 (2006), 1787-1799
 
C6 coefficients used:
                     2  C6 for element                      1
Z=  1 CN= 0.912     C6(AA)=    3.03
Z=  1 CN= 0.000     C6(AA)=    7.59
                     3  C6 for element                      8
Z=  8 CN= 0.000     C6(AA)=   15.51
Z=  8 CN= 0.993     C6(AA)=   12.82
Z=  8 CN= 1.989     C6(AA)=   10.37

#           XYZ [au]              R0(AA) [Ang.]  CN          C6(AA)     C8(AA)   C10(AA) [au]
  1   3.95570   1.73347   0.40081   o   0.510  1.987        10.4       210.1      5195.1
  2   2.41082   0.79565   0.07359   h   0.395  0.993         3.1        37.4       553.8
  3   5.05534   1.24498  -0.95176   h   0.395  0.995         3.1        37.4       553.6

molecular C6(AA) [au] =        44.54

           DFT-D V3(BJ)
 DF pbe                                               
 parameters
 s6       :    1.0000
 s8       :    0.7875
 a1       :    0.4289
 a2       :    4.4407
 k1-k3    :   16.0000    1.3333   -4.0000
 
 Edisp /kcal,au:    -0.2256 -0.00035949

 E6    /kcal :    -0.1718
 E8    /kcal :    -0.0538
 % E8        : 23.85
 nuclear repulsion energy                  =       9.123124953
 empirical dispersive energy correction    =      -0.000359487
 nuclear repulsion + dispersion correction =       9.122765466


         -----------------
         -S,T+V- integrals
         -----------------

 1e-integrals will be neglected if expon. factor < 0.312333E-11
 Difference densities >>NOT<< switched on in parallel ridft!

 DIIS switched on: error vector is FDS-SDF
 Max. Iterations for DIIS is     :   4
 DIIS matrix (see manual) 
    Scaling factor of diagonals  :  1.200
    threshold for scaling factor :  0.000

 scf convergence criterion : increment of total energy < .1000000D-06
                  and increment of one-electron energy < .1000000D-03

  MOs are in ASCII format !


 automatic virtual orbital shift switched on 
      shift if e(lumo)-e(homo) < 0.10000000    


 reading orbital data $scfmo  from file mos
 orbital characterization : expanded
 mo provided and orthogonalized by Cholesky decomposition

 DSCF restart information will be dumped onto file mos


 Starting SCF iterations

          Overall gridpoints after grid construction =          7366

 ITERATION  ENERGY          1e-ENERGY        2e-ENERGY     NORM[dD(SAO)]  TOL
   1  -76.125376377235    -124.32015689     39.072015051    0.000D+00 0.312D-10
                            Exc = -9.41973802827     Coul =  48.4917530792    
                              N = 9.9999895691    
                            current damping = 0.700
 
          max. resid. norm for Fia-block=  9.055D-01 for orbital      2a         
          max. resid. fock norm         =  9.147D+01 for orbital     87a         

 ITERATION  ENERGY          1e-ENERGY        2e-ENERGY     NORM[dD(SAO)]  TOL
   2  -76.338456358621    -123.10907208     37.647850260    0.000D+00 0.312D-10
                            Exc = -9.24209451375     Coul =  46.8899447738    
                              N = 9.9999859442    
                            current damping = 0.650
 
          Norm of current diis error:  1.2628    
          max. resid. norm for Fia-block=  1.395D-01 for orbital      1a         
          max. resid. fock norm         =  1.510D-01 for orbital     60a         

 ITERATION  ENERGY          1e-ENERGY        2e-ENERGY     NORM[dD(SAO)]  TOL
   3  -76.374881793907    -123.22543829     37.727791027    0.000D+00 0.312D-10
                            Exc = -9.27113700512     Coul =  46.9989280325    
                              N = 9.9999868438    
                            current damping = 0.600
 
          Norm of current diis error: 0.55955    
          max. resid. norm for Fia-block=  5.700D-02 for orbital      1a         
          max. resid. fock norm         =  5.931D-02 for orbital      1a         

 ITERATION  ENERGY          1e-ENERGY        2e-ENERGY     NORM[dD(SAO)]  TOL
   4  -76.385203771693    -122.84671574     37.338746502    0.000D+00 0.312D-10
                            Exc = -9.22514430481     Coul =  46.5638908072    
                              N = 9.9999879377    
                            current damping = 0.650
 
          Norm of current diis error: 0.21094    
          max. resid. norm for Fia-block=  2.113D-02 for orbital      2a         
          max. resid. fock norm         =  2.815D-02 for orbital     60a         

 ITERATION  ENERGY          1e-ENERGY        2e-ENERGY     NORM[dD(SAO)]  TOL
   5  -76.386777237703    -122.95365161     37.444108902    0.000D+00 0.312D-10
                            Exc = -9.24259364794     Coul =  46.6867025502    
                              N = 9.9999887502    
                            current damping = 0.700
 
          Norm of current diis error: 0.83678E-01
          max. resid. norm for Fia-block=  8.635D-03 for orbital      1a         
          max. resid. fock norm         =  8.968D-03 for orbital      1a         
          mo-orthogonalization: Cholesky decomposition

 ITERATION  ENERGY          1e-ENERGY        2e-ENERGY     NORM[dD(SAO)]  TOL
   6  -76.387090140570    -122.89784111     37.387985500    0.000D+00 0.312D-10
                            Exc = -9.23597804924     Coul =  46.6239635492    
                              N = 9.9999891331    
                            current damping = 0.750
 
          Norm of current diis error: 0.33163E-01
          max. resid. norm for Fia-block=  3.504D-03 for orbital      1a         
          max. resid. fock norm         =  3.995D-03 for orbital     60a         

 ITERATION  ENERGY          1e-ENERGY        2e-ENERGY     NORM[dD(SAO)]  TOL
   7  -76.387136359341    -122.90281573     37.392913904    0.000D+00 0.312D-10
                            Exc = -9.23710704024     Coul =  46.6300209447    
                              N = 9.9999892961    
                            current damping = 0.800
 
          Norm of current diis error: 0.13902E-01
          max. resid. norm for Fia-block=  1.502D-03 for orbital      1a         
          max. resid. fock norm         =  1.552D-03 for orbital      1a         

 ITERATION  ENERGY          1e-ENERGY        2e-ENERGY     NORM[dD(SAO)]  TOL
   8  -76.387145127696    -122.90052173     37.390611138    0.000D+00 0.312D-10
                            Exc = -9.23698514066     Coul =  46.6275962788    
                              N = 9.9999893670    
                            current damping = 0.850
 
          Norm of current diis error: 0.62151E-02
          max. resid. norm for Fia-block=  6.658D-04 for orbital      1a         
          max. resid. fock norm         =  7.526D-04 for orbital     60a         

 ITERATION  ENERGY          1e-ENERGY        2e-ENERGY     NORM[dD(SAO)]  TOL
   9  -76.387146787168    -122.90125549     37.391343241    0.000D+00 0.312D-10
                            Exc = -9.23716753465     Coul =  46.6285107757    
                              N = 9.9999893979    
                            current damping = 0.900
 
          Norm of current diis error: 0.28229E-02
          max. resid. norm for Fia-block=  3.102D-04 for orbital      1a         
          max. resid. fock norm         =  3.218D-04 for orbital      1a         

 ITERATION  ENERGY          1e-ENERGY        2e-ENERGY     NORM[dD(SAO)]  TOL
  10  -76.387147148185    -122.89981203     37.389899420    0.000D+00 0.312D-10
                            Exc = -9.23700712362     Coul =  46.6269065436    
                              N = 9.9999894123    
                            current damping = 0.950
 
          Norm of current diis error: 0.14891E-02
          max. resid. norm for Fia-block=  1.527D-04 for orbital      2a         
          max. resid. fock norm         =  2.086D-04 for orbital     60a         
          mo-orthogonalization: Cholesky decomposition

 ITERATION  ENERGY          1e-ENERGY        2e-ENERGY     NORM[dD(SAO)]  TOL
  11  -76.387147225677    -122.90067098     37.390758285    0.000D+00 0.312D-10
                            Exc = -9.23714055961     Coul =  46.6278988445    
                              N = 9.9999894186    
                            current damping = 1.000
 
          Norm of current diis error: 0.66635E-03
          max. resid. norm for Fia-block=  7.170D-05 for orbital      1a         
          max. resid. fock norm         =  7.453D-05 for orbital      1a         

 ENERGY CONVERGED !

          Overall gridpoints after grid construction =         28316

 ITERATION  ENERGY          1e-ENERGY        2e-ENERGY     NORM[dD(SAO)]  TOL
  12  -76.387150937488    -122.90031851     37.390402104    0.000D+00 0.312D-10
                            Exc = -9.23710403679     Coul =  46.6275061410    
                              N = 9.9999999952    
                            current damping = 1.050
 
          Norm of current diis error: 0.32646E-03
          max. resid. norm for Fia-block=  3.554D-05 for orbital      1a         
          max. resid. fock norm         =  4.011D-05 for orbital     60a         

 End of SCF iterations

   convergence criteria satisfied after    12 iterations


                  ------------------------------------------ 
                 |  total energy      =    -76.38715093749  |
                  ------------------------------------------ 
                 :  kinetic energy    =     76.12076141772  :
                 :  potential energy  =   -152.50791235521  :
                 :  virial theorem    =      1.99651263967  :
                 :  wavefunction norm =      1.00000000000  :
                  .......................................... 


 orbitals $scfmo  will be written to file mos

    irrep                  1a          2a          3a          4a          5a   
 eigenvalues H        -18.75429    -0.92684    -0.47924    -0.34054    -0.26263
            eV        -510.3342    -25.2207    -13.0409     -9.2667     -7.1467
 occupation              2.0000      2.0000      2.0000      2.0000      2.0000 

    irrep                  6a          7a          8a          9a         10a   
 eigenvalues H         -0.01282     0.05316     0.21656     0.23204     0.23741
            eV          -0.3488      1.4466      5.8929      6.3143      6.4603
 
 
 
 
 ==============================================================================
                           electrostatic moments
 ==============================================================================

 reference point for electrostatic moments:    0.00000   0.00000   0.00000

 
              nuc           elec       ->  total
 ------------------------------------------------------------------------------
                          charge      
 ------------------------------------------------------------------------------
          10.000000     -10.000000       0.000000
 
 ------------------------------------------------------------------------------
                       dipole moment  
 ------------------------------------------------------------------------------
   x      39.111791     -39.255217      -0.143426
   y      15.908363     -16.376811      -0.468448
   z       2.328282      -2.881733      -0.553452
 
   | dipole moment | =     0.7391 a.u. =     1.8787 debye 
 
 ------------------------------------------------------------------------------
                     quadrupole moment
 ------------------------------------------------------------------------------
  xx     156.549254    -161.353639      -4.804385
  yy      26.222294     -33.015048      -6.792754
  zz       2.196422      -7.354715      -5.158293
  xy      63.068612     -64.670074      -1.601461
  xz       8.049712     -10.897905      -2.848193
  yz       4.431906      -5.100976      -0.669070
 
     1/3  trace=      -5.585144
     anisotropy=       6.062076
 
 ==============================================================================
 


    ------------------------------------------------------------------------
         total  cpu-time :   5.39 seconds
         total wall-time :   1.79 seconds
    ------------------------------------------------------------------------

   ****  ridft : all done  ****


    2019-03-12 22:50:30.627 

