
   OpenMP run-time library returned nthreads = 24

 rirpa (c-9-29) : TURBOMOLE V7.3 ( 22142 ) 4 Jul 2018 at 18:12:42
 Copyright (C) 2018 TURBOMOLE GmbH, Karlsruhe


    2019-02-24 19:00:09.564 

 
 
    *************************************************************************
    *************************** PROGRAM RIRPA *******************************
    ******                                                             ******
    ******              H. Eshuis, J. E. Bates and F. Furche           ******
    ******                                                             ******
    ****** Nov 2011                                                    ******
    ****** Copyright TURBOMOLE GmbH                                    ******
    *************************************************************************
    
    
                                References:                                  
    
                   RIRPA:                                                    
                     H. Eshuis, J. Yarkony and F. Furche                     
                     Fast computation of molecular random phase              
                     approximation correlation energies using resolution     
                     of the identity imaginary frequency integration         
                     J. Chem. Phys. 132: 234114 (2010)                       
    
                     H. Eshuis, J. E. Bates and F. Furche                    
                     Electron correlation methods based on                   
                     the random phase approximation                          
                     Theor. Chem. Acc.  131: 1084 (2012)                     
    
                   TWO-COMPONENT RIRPA:                                      
                     M. Kuehn                                                
                     Correlation energies from the                           
                     two-component random-phase approximation                
                     J. Chem. Theory Comput. 10: 623 (2014)                  
    
                   RIRPA GRADIENTS:                                          
                     Asbjoern M. Burow, Jefferson E. Bates, Filipp Furche*,  
                     and Henk Eshuis                                         
                     Analytical First-Order Molecular Properties and Forces  
                     within the Adiabatic Connection Random Phase            
                     Approximation                                           
                     J. Chem. Theory Comput. 10: 180 (2014)                  
    
    
    
      ... OpenMP parallelization enabled, threads:   24

   *-----------------------------------------------------------------------*
   |                     program will use 24 thread(s)                     |
   *-----------------------------------------------------------------------*
 
                FOUND RI-J FLAG
 
  HF exact exchange energy will be computed using RI-J.
 
  The HXX energy will NOT be computed due to nohxx option. 
 


              +--------------------------------------------------+
              | Atomic coordinate, charge and isotop information |
              +--------------------------------------------------+

                    atomic coordinates            atom    charge  isotop
          0.41762680    0.94097172   -3.47075615    c      6.000     0
         -0.38115719   -0.94193257    3.43201590    c      6.000     0
         -0.69331975    0.58671567   -0.99239775    c      6.000     0
          0.73023825   -0.58754151    0.95372772    c      6.000     0
          2.94185546    0.10085069   -3.91927675    c      6.000     0
         -2.90529028   -0.10101985    3.88035189    c      6.000     0
          4.04926869    0.43815509   -6.33093317    c      6.000     0
         -4.01279637   -0.43716306    6.29196394    c      6.000     0
          0.92422366   -2.09667831    5.46266008    c      6.000     0
         -0.88857707    2.09470090   -5.50138177    c      6.000     0
         -3.20832493    1.39735654   -0.45224206    c      6.000     0
          3.24579843   -1.39682503    0.41349113    c      6.000     0
         -4.27076249    1.06930894    1.87797054    c      6.000     0
          4.30813404   -1.06867138   -1.91692406    c      6.000     0
          0.23170404    2.40280920   -7.84029746    c      6.000     0
         -0.19677597   -2.40462339    7.80142071    c      6.000     0
          2.72369888    1.57093869   -8.26894026    c      6.000     0
         -2.68779127   -1.57073571    8.23003627    c      6.000     0
         -4.31889928    2.29834901   -1.91882446    h      1.000     0
          4.35657888   -2.29762129    1.88009713    h      1.000     0
         -2.80911488    2.75823662   -5.23977913    h      1.000     0
          2.84463917   -2.76087410    5.20174938    h      1.000     0
         -6.19114228    1.70668972    2.23324461    h      1.000     0
          6.22915747   -1.70442052   -2.27153997    h      1.000     0
         -5.93777388    0.21999428    6.58552551    h      1.000     0
          5.97470309   -0.21756100   -6.62488792    h      1.000     0
          0.85850225   -3.29934505    9.31874425    h      1.000     0
         -0.82403301    3.29616516   -9.35803065    h      1.000     0
          3.58810965    1.82255328  -10.11510007    h      1.000     0
         -3.55449247   -1.82059259   10.07539000    h      1.000     0
 
       center of nuclear mass  :    0.01819849   -0.00017106   -0.01941907
       center of nuclear charge:    0.01818960   -0.00015606   -0.01942066
              +-------------------------------------------------+
              |        Rotational Constants Section             |
              +-------------------------------------------------+
                                   Center of Mass [a.u]:
               0.01819848582145        -0.00017105888297        -0.01941907459137
                     Principal Moments of Inertia [a.u.]
            1435.52746215308753      6858.25720774636102      8293.78406936026295
                       Rotational constants A,B,C [a.u.]
               0.00034830402983         0.00007290481894         0.00006028611257
                     Rotational constants A,B,C [cm**-1]
               0.04193558680247         0.00877769448898         0.00725841015307
                        Rotational constants A,B,C [MHz]
            1257.19726451850943       263.14866064247565       217.60166209623392

   * BASIS SET information:

              +--------------------------------------------------+
              |               basis set information              |
              +--------------------------------------------------+

              we will work with the 1s 3p 5d 7f 9g ... basis set
              ...i.e. with spherical basis functions...

   type   atoms  prim   cont   basis
   ---------------------------------------------------------------------------
    c       18     50     30   cc-pVTZ   [4s3p2d1f|18s5p2d1f]
    h       12     16     14   cc-pVTZ   [3s2p1d|5s2p1d]
   ---------------------------------------------------------------------------
   total:   30   1092    708
   ---------------------------------------------------------------------------

   total number of primitive shells          :   34
   total number of contracted shells         :  252
   total number of cartesian basis functions :  810
   total number of SCF-basis functions       :  708


   * AUXILIARY BASIS SET information:

              +--------------------------------------------------+
              |               basis set information              |
              +--------------------------------------------------+

              we will work with the 1s 3p 5d 7f 9g ... basis set
              ...i.e. with spherical basis functions...

   type   atoms  prim   cont   basis
   ---------------------------------------------------------------------------
    c       18     81     81   cc-pVTZ   [8s6p5d3f1g|8s6p5d3f1g]
    h       12     30     30   cc-pVTZ   [4s3p2d1f|4s3p2d1f]
   ---------------------------------------------------------------------------
   total:   30   1818   1818
   ---------------------------------------------------------------------------

   total number of primitive shells          :   33
   total number of contracted shells         :  534
   total number of cartesian basis functions : 2238
   total number of SCF-basis functions       : 1818


   * RIJ AUXILIARY BASIS SET information:

              +--------------------------------------------------+
              |               basis set information              |
              +--------------------------------------------------+

              we will work with the 1s 3p 5d 7f 9g ... basis set
              ...i.e. with spherical basis functions...

   type   atoms  prim   cont   basis
   ---------------------------------------------------------------------------
    c       18     70     49   cc-pVTZ   [6s4p3d1f1g|12s5p4d2f1g]
    h       12     16     11   cc-pVTZ   [3s1p1d|5s2p1d]
   ---------------------------------------------------------------------------
   total:   30   1452   1014
   ---------------------------------------------------------------------------

   total number of primitive shells          :   32
   total number of contracted shells         :  330
   total number of cartesian basis functions : 1242
   total number of SCF-basis functions       : 1014

  No keyword $dft found! - HARTREE FOCK CALCULATION

 reading orbital data $scfmo  from file mos
 orbital characterization : scfconv=7

 integral neglect threshold       :  0.27E+02

 scfconv                     7

 MAXIMUM CORE MEMORY WHICH CAN BE ALLOCATED DYNAMICALLY = 72000 MiB
              ( or 9437184000 double words per process)


 there are 1 real representations :   a   

 maximum number of shells which are related by symmetry :  1

 time elapsed for calculating density matrices :   0.076 sec

     total memory allocated for calculation of (Q|P)**(-1/2) : 38 MiB


     calculation of (P|Q) ...
     time in lp2sym        cpu: 10.49 sec    wall:  0.48 sec    ratio: 21.9


     calculation of the Cholesky decomposition of (P|Q)**(-1) ...
     time in invmetri      cpu: 20.19 sec    wall:  1.06 sec    ratio: 19.1

   threshold for RMS(d[D]) in SCF was     :  0.10E-06
   integral neglect threshold             :  0.15E-11
   derivative integral neglect threshold  :  0.10E-06


 setting up bound for integral derivative estimation

 increment for numerical differentiation : 0.00050000
 total memory allocated for calculation of (Q|P)**(-1/2) : 38 MiB
 Dividing biap into                   4003  block chunks,
 using                     8 MiB per block
 Reserved                  35978 MiB for BLAS routines
 Estimated total memory usage:                  71983 MiB
 number of passes for ispin    1
 =    1
 
 Number of eigenvalues < 6e-3:                      0
 
 
            -----------------------------
            Complex frequency integration
            -----------------------------
 
 Number of Clenshaw-Curtis nodes:                    100
 Optimized scaling parameter    :    1.00000000000000     
 Sensitivity measure            :  -2.027100709511842E-012
 
 Done with rirpa frequency point #                     1
 Done with rirpa frequency point #                     2
 Done with rirpa frequency point #                     3
 Done with rirpa frequency point #                     4
 Done with rirpa frequency point #                     5
 Done with rirpa frequency point #                     6
 Done with rirpa frequency point #                     7
 Done with rirpa frequency point #                     8
 Done with rirpa frequency point #                     9
 Done with rirpa frequency point #                    10
 Done with rirpa frequency point #                    11
 Done with rirpa frequency point #                    12
 Done with rirpa frequency point #                    13
 Done with rirpa frequency point #                    14
 Done with rirpa frequency point #                    15
 Done with rirpa frequency point #                    16
 Done with rirpa frequency point #                    17
 Done with rirpa frequency point #                    18
 Done with rirpa frequency point #                    19
 Done with rirpa frequency point #                    20
 Done with rirpa frequency point #                    21
 Done with rirpa frequency point #                    22
 Done with rirpa frequency point #                    23
 Done with rirpa frequency point #                    24
 Done with rirpa frequency point #                    25
 Done with rirpa frequency point #                    26
 Done with rirpa frequency point #                    27
 Done with rirpa frequency point #                    28
 Done with rirpa frequency point #                    29
 Done with rirpa frequency point #                    30
 Done with rirpa frequency point #                    31
 Done with rirpa frequency point #                    32
 Done with rirpa frequency point #                    33
 Done with rirpa frequency point #                    34
 Done with rirpa frequency point #                    35
 Done with rirpa frequency point #                    36
 Done with rirpa frequency point #                    37
 Done with rirpa frequency point #                    38
 Done with rirpa frequency point #                    39
 Done with rirpa frequency point #                    40
 Done with rirpa frequency point #                    41
 Done with rirpa frequency point #                    42
 Done with rirpa frequency point #                    43
 Done with rirpa frequency point #                    44
 Done with rirpa frequency point #                    45
 Done with rirpa frequency point #                    46
 Done with rirpa frequency point #                    47
 Done with rirpa frequency point #                    48
 Done with rirpa frequency point #                    49
 Done with rirpa frequency point #                    50
 Done with rirpa frequency point #                    51
 Done with rirpa frequency point #                    52
 Done with rirpa frequency point #                    53
 Done with rirpa frequency point #                    54
 Done with rirpa frequency point #                    55
 Done with rirpa frequency point #                    56
 Done with rirpa frequency point #                    57
 Done with rirpa frequency point #                    58
 Done with rirpa frequency point #                    59
 Done with rirpa frequency point #                    60
 Done with rirpa frequency point #                    61
 Done with rirpa frequency point #                    62
 Done with rirpa frequency point #                    63
 Done with rirpa frequency point #                    64
 Done with rirpa frequency point #                    65
 Done with rirpa frequency point #                    66
 Done with rirpa frequency point #                    67
 Done with rirpa frequency point #                    68
 Done with rirpa frequency point #                    69
 Done with rirpa frequency point #                    70
 Done with rirpa frequency point #                    71
 Done with rirpa frequency point #                    72
 Done with rirpa frequency point #                    73
 Done with rirpa frequency point #                    74
 Done with rirpa frequency point #                    75
 Done with rirpa frequency point #                    76
 Done with rirpa frequency point #                    77
 Done with rirpa frequency point #                    78
 Done with rirpa frequency point #                    79
 Done with rirpa frequency point #                    80
 Done with rirpa frequency point #                    81
 Done with rirpa frequency point #                    82
 Done with rirpa frequency point #                    83
 Done with rirpa frequency point #                    84
 Done with rirpa frequency point #                    85
 Done with rirpa frequency point #                    86
 Done with rirpa frequency point #                    87
 Done with rirpa frequency point #                    88
 Done with rirpa frequency point #                    89
 Done with rirpa frequency point #                    90
 Done with rirpa frequency point #                    91
 Done with rirpa frequency point #                    92
 Done with rirpa frequency point #                    93
 Done with rirpa frequency point #                    94
 Done with rirpa frequency point #                    95
 Done with rirpa frequency point #                    96
 Done with rirpa frequency point #                    97
 Done with rirpa frequency point #                    98
 Done with rirpa frequency point #                    99
 Done with rirpa frequency point #                   100
 


 RI-RPA correlation energy: -0.3187793725137046E+01
 
 
 HXX Energy calculation skipped due to nohxx option
 

                  --------------------------------------------------- 
                 |  HXX+RIRPA total energy     =     -3.18779372514  |
                  ---------------------------------------------------- 
                 :  RIRPA correlation energy   =     -3.18779372514  :
                 :  HXX total energy           =      0.00000000000  :
                 :  Hartree energy             =      0.00000000000  :
                 :  Exact Exchange energy      =      0.00000000000  :
                  .................................................... 


    ------------------------------------------------------------------------
    Rirpa profiling                cpu                    wall         ratio
    ------------------------------------------------------------------------
    module                         sec     %               sec     %
    ------------------------------------------------------------------------
    RIRPA                     10200.3  100.00          670.7  100.00  15.2
    riccmos                       6.9    0.07            1.9    0.28   3.7
    riccaux                      30.8    0.30            1.5    0.23  20.0
    riccbound                     7.2    0.07            3.4    0.50   2.2
    ccmkbaoi                    107.9    1.06            5.2    0.77  20.9
    cc3idxnrm                    77.5    0.76            3.5    0.52  22.4
    ecrpa                      9958.3   97.63          654.2   97.55  15.2
    tread                       467.1    4.58          245.1   36.55   1.9
    tqbuild                    8591.3   84.23          367.6   54.80  23.4
    trpaln                      342.2    3.35           14.3    2.14  23.9
    ------------------------------------------------------------------------
    sum                       29796.0  292.11         1968.1  293.45  15.1
    ------------------------------------------------------------------------


    ------------------------------------------------------------------------
         total  cpu-time :  2 hours 50 minutes and  1 seconds
         total wall-time : 11 minutes and 11 seconds
    ------------------------------------------------------------------------

   ****  rirpa : all done  ****


    2019-02-24 19:11:20.252 

