Using Slurm to start processes with PMI2
STARTING ridft ON 8 PROCESSORS!
RUNNING PROGRAM /beegfs/modfac/apps/TURBOMOLE/7.0_intel_GA/bin/em64t-unknown-linux-gnu_mpi/ridft_mpi.
PLEASE WAIT UNTIL ridft HAS FINISHED.
Look for the output in slave1.output.
  this is node-proc. number 1 running on node c-16-29.local
  the total number of node-proc. spawned is            8
  parallel platform: MPP, or cluster with fast interconnect

 ridft (c-16-29.local) : TURBOMOLE V7.0.2( ) 15 Jan 2016 at 17:47:42
 Copyright (C) 2016 TURBOMOLE GmbH, Karlsruhe


    2017-11-09 10:30:26.832 



                                  r i d f t

                        DFT program with RI approximation 
                                for coulomb part 




                                                 
                                 References:     
                                                 
          TURBOMOLE:                             
              R. Ahlrichs, M. Baer, M. Haeser, H. Horn, and
              C. Koelmel
              Electronic structure calculations on workstation
              computers: the program system TURBOMOLE
              Chem. Phys. Lett. 162: 165 (1989)
          Density Functional:                              
              O. Treutler and R. Ahlrichs                      
              Efficient Molecular Numerical Integration Schemes
              J. Chem. Phys. 102: 346 (1995)                   
          Parallel Version:                                
              Performance of parallel TURBOMOLE for Density    
              Functional Calculations                          
              M. v. Arnim and R. Ahlrichs                      
              J. Comp. Chem. 19: 1746 (1998)                   
          RI-J Method:                                     
              Auxiliary Basis Sets to approximate Coulomb      
              Potentials                                       
              Chem. Phys. Lett. 240: 283 (1995)                
              K. Eichkorn, O. Treutler, H. Oehm, M. Haeser     
              and R. Ahlrichs                                  
              Chem. Phys. Lett. 242: 652 (1995)                
                                                           
              Auxiliary Basis Sets for Main Row Atoms and their
              Use to approximate Coulomb Potentials            
              K. Eichkorn, F. Weigend, O. Treutler and         
              R. Ahlrichs                                      
              Theo. Chem. Acc. 97: 119 (1997)                   
                                                           
              Accurate Coulomb-fitting basis sets for H to Rn 
              F. Weigend                                        
              Phys. Chem. Chem. Phys. 8: 1057 (2006)            
                                                           
          Multipole accelerated RI-J (MARI-J):             
              Fast evaluation of the Coulomb potential for     
              electron densities using multipole accelerated   
              resolution of identity approximation             
              M. Sierka, A. Hogekamp and R. Ahlrichs           
              J. Chem. Phys. 118: 9136 (2003)                  
          RI-JK Method:                                     
              A fully direct RI-HF algorithm: Implementation,
              optimised auxiliary basis sets, demonstration of
              accuracy and efficiency                         
              F. Weigend                                      
              Phys. Chem. Chem. Phys. 4: 4285 (2002)           
          Two-component HF and DFT with spin-orbit coupling:  
              Self-consistent treatment of spin-orbit         
              interactions with efficient Hartree-Fock and    
              density functional methods                      
              M. K. Armbruster, F. Weigend, C. van Wüllen and 
              W. Klopper                                      
              Phys. Chem. Chem. Phys. 10: 1748 (2008)         
          Relativistic all-electron 2c calculations           
              An efficient implementation of two-component    
              relativistic exact-decoupling methods for large 
              molecules                                       
              D. Peng, N. Middendorf, F. Weigend, M. Reiher   
              J. Chem. Phys. 138, 184105 (2013)               
                                         


 


              +--------------------------------------------------+
              |      general information about current run       |
              +--------------------------------------------------+

 

 SCF run will be profiled !


 DENSITY CONVERGENCE CHECK SWITCHED ON !
 SCF CONVERGENCE IF RMS(delta[D]) <     0.1000000000E-06

 PBE functional
 exchange:    LDA + PBE
 correlation: LDA (PW) + PBE
 A DFT calculation using the RI-J approximation will be carried out.
 Allocatable memory for RI due to $ricore (MB):       30000


              +--------------------------------------------------+
              | Atomic coordinate, charge and isotop information |
              +--------------------------------------------------+

                    atomic coordinates            atom    charge  isotop
         -9.01164311    2.20047997    0.88984015    c      6.000     0
        -10.28644233    2.18382491   -1.71865885    c      6.000     0
        -10.92269959   -0.55413184   -2.36773961    c      6.000     0
        -12.52827799   -1.74911213   -0.29304591    c      6.000     0
        -11.30543863   -1.38935562    2.31685549    c      6.000     0
        -10.82947682    1.22960695    2.70521796    o      8.000     0
         -8.63810179    3.07493335   -3.66187624    o      8.000     0
         -9.13444308    5.51421918   -4.70286386    c      6.000     0
         -8.71869894    5.31292867   -7.56594616    c      6.000     0
         -5.90383648    4.96353000   -8.12814842    c      6.000     0
         -4.34349528    6.95445010   -6.71727951    c      6.000     0
         -4.90122536    6.92349917   -3.87944216    c      6.000     0
         -7.60076997    7.39088653   -3.57447061    o      8.000     0
         -1.74547421    6.29201147   -7.21258322    o      8.000     0
         -0.11378431    8.19822704   -8.06596688    c      6.000     0
          1.66725487    7.05905878  -10.04501815    c      6.000     0
          3.41637618    5.14746860   -8.80484868    c      6.000     0
          4.74863807    6.33824173   -6.54366319    c      6.000     0
          2.76403899    7.32773660   -4.68276660    c      6.000     0
          1.34223400    9.24253807   -6.04815882    o      8.000     0
          6.31046524    4.36831300   -5.49894592    o      8.000     0
          8.83834243    4.98294820   -4.96167739    c      6.000     0
         10.51131262    2.73460336   -5.71982016    c      6.000     0
         10.06709775    0.48313831   -3.98112005    c      6.000     0
         10.31963885    1.28031449   -1.22027531    c      6.000     0
          8.45830458    3.45636868   -0.72660112    c      6.000     0
          9.21137111    5.53555838   -2.36245979    o      8.000     0
          9.76342548   -0.91828436    0.24814947    o      8.000     0
         11.34176467   -1.48191502    2.35420048    c      6.000     0
         11.78326879   -4.34979530    2.31630164    c      6.000     0
          9.29879583   -5.70660229    2.90695589    c      6.000     0
          8.05872430   -4.58258676    5.26872247    c      6.000     0
          7.72651175   -1.72163567    5.03257833    c      6.000     0
         10.22731691   -0.65731012    4.64553951    o      8.000     0
          5.65018651   -5.84939374    5.48763641    o      8.000     0
          5.05098431   -6.95800245    7.82224547    c      6.000     0
          3.70361511   -9.47865328    7.31864563    c      6.000     0
          1.13340217   -9.03026593    6.09873934    c      6.000     0
         -0.40916520   -7.18025881    7.68216528    c      6.000     0
          1.12084455   -4.73191764    7.99962586    c      6.000     0
          3.44800896   -5.38867268    9.30673925    o      8.000     0
         -2.73495801   -6.78046921    6.35864442    o      8.000     0
         -5.01302179   -6.89279608    7.78628079    c      6.000     0
         -5.88411765   -4.43829352    8.41452457    o      8.000     0
         -6.34963181   -2.87592431    6.20613457    c      6.000     0
         -8.49599731   -4.13872418    4.73359780    c      6.000     0
         -7.74893897   -6.81292331    3.91462701    c      6.000     0
         -6.94707212   -8.37739837    6.21197728    c      6.000     0
         -6.84709753   -0.18652857    7.17204468    c      6.000     0
         -4.89210075    1.56376968    6.49439989    o      8.000     0
         -5.99032865  -10.80361831    5.60127378    o      8.000     0
         -9.83279674   -8.01390096    2.70719383    o      8.000     0
         -9.07283083   -2.82741296    2.41084111    o      8.000     0
         -0.25935322  -11.34275124    5.91336169    o      8.000     0
          5.12939478  -11.08708466    5.63788227    o      8.000     0
         -0.14339558   -2.60747601    9.51959164    c      6.000     0
         -0.39658239   -0.32873445    8.08435572    o      8.000     0
          9.77345607   -8.33089975    3.29056861    o      8.000     0
         12.90049772   -5.08322671   -0.00741422    o      8.000     0
          6.57212780   -0.37220999    7.32876396    c      6.000     0
          4.37247600    1.07308622    6.69644473    o      8.000     0
         11.87324966   -1.47382938   -4.46414157    o      8.000     0
         10.00564157    1.90381250   -8.27256142    o      8.000     0
          8.34552611    4.49167894    1.98313394    c      6.000     0
          5.84898514    4.40276141    3.01688430    o      8.000     0
          5.18350559    4.31880575  -10.67848155    o      8.000     0
          0.17406200    5.94122035  -12.00330456    o      8.000     0
          3.76676879    8.55878906   -2.25238223    c      6.000     0
          2.87113061    7.31561760   -0.02428101    o      8.000     0
         -5.50536895    5.18995363  -10.77601434    o      8.000     0
        -10.29049945    3.39858321   -8.59558626    o      8.000     0
         -3.54820503    8.96014457   -2.31836328    c      6.000     0
         -2.25464527    8.00589376   -0.12839482    o      8.000     0
        -12.23174021   -0.58161920   -4.73222677    o      8.000     0
        -12.81838013   -4.38387028   -0.93270436    o      8.000     0
         -8.03170148    4.74165946    1.86229392    c      6.000     0
         -5.37812046    4.62215596    2.46306337    o      8.000     0
          6.21955667  -12.16287022    6.64420794    h      1.000     0
          0.77889030  -12.50389956    4.93869557    h      1.000     0
         12.06528056   -4.13491787   -1.35873516    h      1.000     0
          8.12883940   -9.10700323    3.61719032    h      1.000     0
         11.14034754    2.78779091   -9.40779942    h      1.000     0
         11.67659074   -1.94823109   -6.22788876    h      1.000     0
          1.31059135    4.88322931  -12.98666875    h      1.000     0
          6.36410864    3.17860616   -9.82607966    h      1.000     0
        -10.30350266    1.98427935   -7.40580260    h      1.000     0
         -3.68076501    5.09407286  -11.06291965    h      1.000     0
        -14.42837644   -4.97386135   -0.28565591    h      1.000     0
        -12.62244821   -2.33941955   -5.09710464    h      1.000     0
         -4.18413339  -10.63116734    5.23835028    h      1.000     0
        -10.33401175   -6.90630973    1.31569439    h      1.000     0
          6.75744167   -7.22724292    8.96591915    h      1.000     0
          3.41245356  -10.43389050    9.13502796    h      1.000     0
          1.41055793   -8.20611831    4.21200135    h      1.000     0
         -0.80263459   -8.00818264    9.54603467    h      1.000     0
          1.58994814   -3.99583504    6.12254793    h      1.000     0
         13.13450221   -0.46030419    2.19649441    h      1.000     0
         13.15452573   -4.81481425    3.79737366    h      1.000     0
          7.99705092   -5.42921583    1.31235091    h      1.000     0
          9.21747646   -5.02363440    6.93473818    h      1.000     0
          6.55845953   -1.31725415    3.37416741    h      1.000     0
          9.39798717    6.70584318   -5.96878524    h      1.000     0
         12.49365612    3.31447069   -5.54654717    h      1.000     0
          8.13960720   -0.23229341   -4.27608716    h      1.000     0
         12.26111356    1.90895339   -0.83325258    h      1.000     0
          6.55540658    2.83670819   -1.25971921    h      1.000     0
         -1.18050426    9.78848329   -8.85119457    h      1.000     0
          2.81592577    8.60609820  -10.82543353    h      1.000     0
          2.28768720    3.54462439   -8.12251645    h      1.000     0
          5.95541863    7.90764272   -7.17172943    h      1.000     0
          1.49238323    5.77978767   -4.15489744    h      1.000     0
        -11.08617574    6.06750049   -4.29112227    h      1.000     0
         -9.32955321    7.09400127   -8.42978297    h      1.000     0
         -5.30638915    3.09207595   -7.44380385    h      1.000     0
         -4.73772801    8.83260354   -7.51228769    h      1.000     0
         -4.42997007    5.04688435   -3.14161414    h      1.000     0
        -12.59518145   -1.94463138    3.84065024    h      1.000     0
        -14.37784309   -0.81282930   -0.27307750    h      1.000     0
         -9.13800379   -1.60719615   -2.52454876    h      1.000     0
        -12.01816042    3.32990473   -1.67718648    h      1.000     0
         -7.40393393    0.90139422    0.82022793    h      1.000     0
         -4.67072285   -7.84105197    9.59336868    h      1.000     0
         -8.62441553   -8.68778147    7.38838679    h      1.000     0
         -6.13570195   -6.65422444    2.60952874    h      1.000     0
        -10.20503288   -4.22436911    5.91065962    h      1.000     0
         -4.65060129   -2.85514350    5.02425148    h      1.000     0
          9.52042780    3.36774311    3.25004024    h      1.000     0
          9.05718404    6.43945994    1.95422600    h      1.000     0
          4.70555842    5.47165873    1.97769396    h      1.000     0
          5.95802990   -1.73624660    8.74839888    h      1.000     0
          8.03027311    0.84708601    8.15871406    h      1.000     0
          4.82562592    2.34121747    5.38861527    h      1.000     0
         -2.05641268   -3.13505889   10.07847251    h      1.000     0
          0.99070298   -2.27529441   11.22339184    h      1.000     0
          1.30607678    0.28161508    7.57590614    h      1.000     0
         -8.58078937    0.57543225    6.35804832    h      1.000     0
         -7.05399352   -0.27168803    9.23346535    h      1.000     0
         -3.23312581    0.94051111    7.12254387    h      1.000     0
          5.82517637    8.46049009   -2.16718105    h      1.000     0
          3.19242174   10.55148009   -2.25752331    h      1.000     0
         -8.22283866    6.20234446    0.42136409    h      1.000     0
         -9.12131691    5.28562074    3.53681048    h      1.000     0
         -5.14693660    3.59594560    4.03203180    h      1.000     0
         -2.08985557    9.88597113   -3.44302588    h      1.000     0
         -4.95566834   10.37541995   -1.75437220    h      1.000     0
         -3.40416102    6.97011371    0.90933787    h      1.000     0
          0.99968983    7.46577709    0.03174869    h      1.000     0
         -2.74493223   -1.87671405   -4.00081949    c      6.000     0
         -1.13049587   -2.23546927    0.70217177    c      6.000     0
          2.71710405   -3.61459694   -3.70375763    c      6.000     0
          2.07077280   -1.07807224   -4.99373223    c      6.000     0
          1.69489423   -1.57651789    0.65949744    c      6.000     0
          3.41007013   -3.32159326   -0.89660365    c      6.000     0
         -2.84586354   -0.92471947   -1.26137466    c      6.000     0
         -0.71858182   -0.78804431   -5.77869192    c      6.000     0
         -2.42991600    1.75977870   -1.29578864    o      8.000     0
         -3.26559074    2.52091046    0.16926919    h      1.000     0
         -4.78753680   -1.30159676   -0.61291552    h      1.000     0
          2.57390285    0.47896758   -3.72744466    h      1.000     0
          1.11798152   -4.91850822   -3.88702246    h      1.000     0
          1.88787656    0.38846290    0.03605392    h      1.000     0
         -4.57481236   -1.42692602   -4.86645456    h      1.000     0
         -2.63098388   -3.94653987   -3.94794013    h      1.000     0
         -1.11833576    1.21996094   -6.07566089    h      1.000     0
         -1.86660060   -1.66872136    2.55519685    h      1.000     0
          2.39331049   -1.59863219    2.60808292    h      1.000     0
         -0.99794645   -1.71811175   -7.61330710    h      1.000     0
          5.34211859   -2.57887175   -0.76702191    h      1.000     0
         -1.42181338   -4.28870859    0.57175932    h      1.000     0
          3.23972190   -0.82545010   -6.68533025    h      1.000     0
          4.29985450   -4.53789125   -4.67175952    h      1.000     0
          3.45082775   -5.19848837   -0.00954924    h      1.000     0
 
       center of nuclear mass  :   -0.05192882   -0.00908005   -0.00274752
       center of nuclear charge:   -0.04553503   -0.00819548   -0.00255904

              +--------------------------------------------------+
              |               basis set information              |
              +--------------------------------------------------+

              we will work with the 1s 3p 5d 7f 9g ... basis set
              ...i.e. with spherical basis functions...

   type   atoms  prim   cont   basis
   ---------------------------------------------------------------------------
    c       50     77     55   cc-pVQZ   [5s4p3d2f1g|21s6p3d2f1g]
    o       36     77     55   cc-pVQZ   [5s4p3d2f1g|21s6p3d2f1g]
    h       86     32     30   cc-pVQZ   [4s3p2d1f|6s3p2d1f]
   ---------------------------------------------------------------------------
   total:  172   9374   7310
   ---------------------------------------------------------------------------

   total number of primitive shells          :   78
   total number of contracted shells         : 2150
   total number of cartesian basis functions : 9030
   total number of SCF-basis functions       : 7310


 integral neglect threshold       :  0.37E-14
 integral storage threshold THIZE :  0.10E-04
 integral storage threshold THIME :         5

 RI-J AUXILIARY BASIS SET information:

              we will work with the 1s 3p 5d 7f 9g ... basis set
              ...i.e. with spherical basis functions...

   type   atoms  prim   cont   basis
   ---------------------------------------------------------------------------
    c       50     70     49   cc-pVQZ   [6s4p3d1f1g|12s5p4d2f1g]
    o       36     70     49   cc-pVQZ   [6s4p3d1f1g|12s5p4d2f1g]
    h       86     16     11   cc-pVQZ   [3s1p1d|5s2p1d]
   ---------------------------------------------------------------------------
   total:  172   7396   5160
   ---------------------------------------------------------------------------

   total number of primitive shells          :   56
   total number of contracted shells         : 1720
   total number of cartesian basis functions : 6278
   total number of SCF-basis functions       : 5160


 symmetry group of the molecule :   c1 

 the group has the following generators :
   c1(z)

    1 symmetry operations found

 there are 1 real representations :   a   

 maximum number of shells which are related by symmetry :  1


    mo occupation :
   irrep   mo's   occupied
    a     7310      337
 
 number of basis functions   :         7310
 number of occupied orbitals :          337
 
  
           ------------------
           density functional
           ------------------
 PBE functional
 exchange:    LDA + PBE
 correlation: LDA (PW) + PBE
 grinp -> nfun, dfgga, dfhybrid 
           6 T F
 iterations will be done with small grid
  
 spherical integration : Lebedev's spherical grid
 spherical gridsize    :           5
    i.e. gridpoints    :         590
 value for diffuse not defined
 radial integration    : Chebyshev 2nd kind (scaling 3)
 radial gridsize       :           8
 integration cells     :         172
 partition function    : becke
 partition sharpness   :           3
  

 <rddim> : input of entry tasksize
           from data group '$pardft' failed !

               Default values taken

 <rddim> : input of entry memdiv
           from data group '$pardft' failed !

               Default values taken
  RIDFT: memory allocation for DFT gridpoints
  MEMORY is divided by 1 as DEFAULT
 Each node can hold at most  the            1 -th part
 of the gridpoints    

 biggest AO integral is expected to be     4.785886462
  
           ------------------------
               RI-J - INFORMATION
           ------------------------
 
 
 **************************************************
 *      MEMORY ALLOCATION FOR PARALLEL RI-DFT     *
 **************************************************
 
 
MEMORY FOR (MU NU/ ALPHA), SEQUENTIAL RUN              29774 MByte
 
            DIFFERENCE IN MEMORY NEED:       DIAG./SLAVE  
 
      TOTAL DIFFERENCE :                   2390 MByte
 
      difference in xcore:                  227 MByte
      difference in fatmat:                 726 MByte
      getcor calls skipped by slaves:      1438 MByte
 
 
           Integral memory available for diagonal.     29774 MByte
 
           Integral memory available for slave             0 MByte
 
         MEMORY FOR (MU NU/ ALPHA) ON DIAGONALIZER     29774 MByte
 
         MEMORY FOR (MU NU/ ALPHA) ON ONE SLAVE            0 MByte
 
         TOTAL MEMORY FOR (MU NU/ ALPHA),ALL NODES     29774 MByte
 
 Contributions to RI integral batches: 
  neglected integral batches:     1657643
  direct contribution:             486920
  memory contribution:      167762
 Memory core needed for (P|Q) and Cholesky    204 MByte
 Memory core minimum needed except of (P|Q)    28 MByte
 Total minimum memory core needed (sum)       231 MByte
     number of direct tasks:         160
  
 ****************************************
 Memory allocated for RI-J 30005 MByte
 ****************************************
                                            

          ------------------------
          nuclear repulsion energy  :   20329.2280558    
          ------------------------

 
          -----------------
          -S integrals
          -----------------

 1e-integrals will be neglected if expon. factor < 0.370095E-15
 
          -----------------
          -T+V integrals
          -----------------

 1e-integrals will be neglected if expon. factor < 0.370095E-15
 Difference densities >>NOT<< switched on in parallel ridft!

 automatic virtual orbital shift switched on 
      shift if e(lumo)-e(homo) < 0.10000000    


 DIIS switched on: error vector is FDS-SDF
 Max. Iterations for DIIS is     :   4
 DIIS matrix (see manual) 
    Scaling factor of diagonals  :  1.200
    threshold for scaling factor :  0.000

 scf convergence criterion : increment of total energy < .1000000D-08
                  and increment of one-electron energy < .1000000D-05


 <geterg> : there is no data group $energy 

  MOs are in ASCII format !


 reading orbital data $scfmo  from file mos . 

 orbital characterization : expanded
 
 mo provided and orthogonalized by Cholesky decomposition

 DSCF restart information will be dumped onto file mos


 Starting SCF iterations


 ITERATION  ENERGY          1e-ENERGY        2e-ENERGY     RMS[dD(SAO)]   TOL
   1  -4645.0292921152    -46875.353447     21901.096099    0.000D+00 0.369D-14
                            Exc = -607.413027453     Coul =  22508.5091263    
                              N = 674.00138934    
                            current damping = 0.700
 
          max. resid. norm for Fia-block=  3.354D-01 for orbital      9a         
          max. resid. fock norm         =  9.183D+00 for orbital   6660a         

 ITERATION  ENERGY          1e-ENERGY        2e-ENERGY     RMS[dD(SAO)]   TOL
   2  -4658.9343963354    -46923.376733     21935.214281    0.237D-02 0.369D-14
                            Exc = -605.457478329     Coul =  22540.6717589    
                              N = 674.00117072    
                            current damping = 0.650
 
          Norm of current diis error:  9.9922    
          max. resid. norm for Fia-block=  1.423D-01 for orbital     33a         
          max. resid. fock norm         =  2.383D-01 for orbital   6859a         

 ITERATION  ENERGY          1e-ENERGY        2e-ENERGY     RMS[dD(SAO)]   TOL
   3  -4660.9641903187    -46949.548116     21959.355870    0.102D-02 0.369D-14
                            Exc = -608.555372008     Coul =  22567.9112420    
                              N = 674.00103507    
                            current damping = 0.550
 
          Norm of current diis error:  4.9706    
          max. resid. norm for Fia-block=  5.724D-02 for orbital     32a         
          max. resid. fock norm         =  6.990D-02 for orbital    343a         

 ITERATION  ENERGY          1e-ENERGY        2e-ENERGY     RMS[dD(SAO)]   TOL
   4  -4661.6636645815    -46945.633948     21954.742228    0.686D-03 0.369D-14
                            Exc = -607.418982986     Coul =  22562.1612107    
                              N = 674.00098597    
                            current damping = 0.600
 
          Norm of current diis error:  1.8425    
          max. resid. norm for Fia-block=  2.257D-02 for orbital     87a         
          max. resid. fock norm         =  3.846D-02 for orbital   6830a         

 ITERATION  ENERGY          1e-ENERGY        2e-ENERGY     RMS[dD(SAO)]   TOL
   5  -4661.7722700388    -46955.444865     21964.444539    0.367D-03 0.369D-14
                            Exc = -608.508365019     Coul =  22572.9529037    
                              N = 674.00094414    
                            current damping = 0.650
 
          Norm of current diis error: 0.79742    
          max. resid. norm for Fia-block=  8.456D-03 for orbital    293a         
          max. resid. fock norm         =  1.060D-02 for orbital    344a         
          mo-orthogonalization: Cholesky decomposition

 ITERATION  ENERGY          1e-ENERGY        2e-ENERGY     RMS[dD(SAO)]   TOL
   6  -4661.7948139752    -46953.004228     21961.981358    0.263D-03 0.369D-14
                            Exc = -608.243951533     Coul =  22570.2253100    
                              N = 674.00093967    
                            current damping = 0.700
 
          Norm of current diis error: 0.30132    
          max. resid. norm for Fia-block=  3.151D-03 for orbital    119a         
          max. resid. fock norm         =  5.331D-03 for orbital   6931a         

 ITERATION  ENERGY          1e-ENERGY        2e-ENERGY     RMS[dD(SAO)]   TOL
   7  -4661.7979847272    -46953.419505     21962.393465    0.974D-04 0.369D-14
                            Exc = -608.302650418     Coul =  22570.6961153    
                              N = 674.00093617    
                            current damping = 0.750
 
          Norm of current diis error: 0.13645    
          max. resid. norm for Fia-block=  1.551D-03 for orbital     88a         
          max. resid. fock norm         =  3.339D-03 for orbital   7285a         

 ITERATION  ENERGY          1e-ENERGY        2e-ENERGY     RMS[dD(SAO)]   TOL
   8  -4661.7985869082    -46954.126203     21963.099560    0.389D-04 0.369D-14
                            Exc = -608.338476455     Coul =  22571.4380364    
                              N = 674.00093446    
                            current damping = 0.650
 
          Norm of current diis error: 0.60407E-01
          max. resid. norm for Fia-block=  7.220D-04 for orbital    301a         
          max. resid. fock norm         =  1.461D-03 for orbital   6573a         

 ITERATION  ENERGY          1e-ENERGY        2e-ENERGY     RMS[dD(SAO)]   TOL
   9  -4661.7987023143    -46953.830385     21962.803627    0.203D-04 0.369D-14
                            Exc = -608.341818659     Coul =  22571.1454457    
                              N = 674.00093326    
                            current damping = 0.700
 
          Norm of current diis error: 0.30605E-01
          max. resid. norm for Fia-block=  3.412D-04 for orbital    315a         
          max. resid. fock norm         =  5.510D-04 for orbital   7288a         

 ITERATION  ENERGY          1e-ENERGY        2e-ENERGY     RMS[dD(SAO)]   TOL
  10  -4661.7987272157    -46953.882950     21962.856167    0.973D-05 0.369D-14
                            Exc = -608.332377497     Coul =  22571.1885441    
                              N = 674.00093346    
                            current damping = 0.750
 
          Norm of current diis error: 0.14198E-01
          max. resid. norm for Fia-block=  1.609D-04 for orbital     97a         
          max. resid. fock norm         =  2.846D-04 for orbital   6934a         
          mo-orthogonalization: Cholesky decomposition

 ITERATION  ENERGY          1e-ENERGY        2e-ENERGY     RMS[dD(SAO)]   TOL
  11  -4661.7987318608    -46953.976266     21962.949478    0.174D-05 0.369D-14
                            Exc = -608.342768131     Coul =  22571.2922465    
                              N = 674.00093333    
                            current damping = 0.600
 
          Norm of current diis error: 0.64879E-02
          max. resid. norm for Fia-block=  8.348D-05 for orbital    313a         
          max. resid. fock norm         =  1.843D-04 for orbital   7286a         

 ITERATION  ENERGY          1e-ENERGY        2e-ENERGY     RMS[dD(SAO)]   TOL
  12  -4661.7987326677    -46953.963563     21962.936775    0.172D-05 0.369D-14
                            Exc = -608.341359374     Coul =  22571.2781341    
                              N = 674.00093323    
                            current damping = 0.650
 
          Norm of current diis error: 0.43471E-02
          max. resid. norm for Fia-block=  4.787D-05 for orbital    327a         
          max. resid. fock norm         =  1.362D-04 for orbital   7285a         

 ITERATION  ENERGY          1e-ENERGY        2e-ENERGY     RMS[dD(SAO)]   TOL
  13  -4661.7987329833    -46953.935499     21962.908710    0.819D-06 0.369D-14
                            Exc = -608.340674801     Coul =  22571.2493847    
                              N = 674.00093320    
                            current damping = 0.500
 
          Norm of current diis error: 0.23452E-02
          max. resid. norm for Fia-block=  2.371D-05 for orbital    301a         
          max. resid. fock norm         =  5.461D-05 for orbital   7174a         

 ITERATION  ENERGY          1e-ENERGY        2e-ENERGY     RMS[dD(SAO)]   TOL
  14  -4661.7987330809    -46953.949724     21962.922935    0.265D-06 0.369D-14
                            Exc = -608.340982286     Coul =  22571.2639177    
                              N = 674.00093322    
                            current damping = 0.550
 
          Norm of current diis error: 0.95817E-03
          max. resid. norm for Fia-block=  1.204D-05 for orbital    327a         
          max. resid. fock norm         =  2.632D-05 for orbital   6573a         

 DENSITY CONVERGED !


 ITERATION  ENERGY          1e-ENERGY        2e-ENERGY     RMS[dD(SAO)]   TOL
  15  -4661.7987330976    -46953.952323     21962.925534    0.726D-07 0.369D-14
                            Exc = -608.341516566     Coul =  22571.2670510    
                              N = 674.00093322    
                            current damping = 0.400
 
          Norm of current diis error: 0.46619E-03
          max. resid. norm for Fia-block=  3.628D-06 for orbital    327a         
          max. resid. fock norm         =  6.880D-06 for orbital   7301a         
          mo-orthogonalization: Cholesky decomposition

 DENSITY CONVERGED !


 ITERATION  ENERGY          1e-ENERGY        2e-ENERGY     RMS[dD(SAO)]   TOL
  16  -4661.7987331022    -46953.951347     21962.924558    0.661D-07 0.369D-14
                            Exc = -608.341306380     Coul =  22571.2658640    
                              N = 674.00093322    
                            current damping = 0.450
 
          Norm of current diis error: 0.92861E-04
          max. resid. norm for Fia-block=  9.933D-07 for orbital    206a         
          max. resid. fock norm         =  2.657D-06 for orbital   7265a         

 DENSITY CONVERGED !


 ITERATION  ENERGY          1e-ENERGY        2e-ENERGY     RMS[dD(SAO)]   TOL
  17  -4661.7987331026    -46953.950572     21962.923783    0.203D-07 0.369D-14
                            Exc = -608.341288542     Coul =  22571.2650714    
                              N = 674.00093322    
                            current damping = 0.300
 
          Norm of current diis error: 0.43422E-04
          max. resid. norm for Fia-block=  3.788D-07 for orbital    305a         
          max. resid. fock norm         =  1.071D-06 for orbital   7115a         

 DENSITY CONVERGED !


 ITERATION  ENERGY          1e-ENERGY        2e-ENERGY     RMS[dD(SAO)]   TOL
  18  -4661.7987331019    -46953.951008     21962.924219    0.427D-08 0.369D-14
                            Exc = -608.341298171     Coul =  22571.2655171    
                              N = 674.00093322    
                            current damping = 0.350
 
          Norm of current diis error: 0.24647E-04
          max. resid. norm for Fia-block=  1.709D-07 for orbital    305a         
          max. resid. fock norm         =  4.453D-07 for orbital   7115a         

 ENERGY & DENSITY CONVERGED !


 ITERATION  ENERGY          1e-ENERGY        2e-ENERGY     RMS[dD(SAO)]   TOL
  19  -4661.7989047170    -46953.950942     21962.923981    0.155D-08 0.369D-14
                            Exc = -608.341466955     Coul =  22571.2654483    
                              N = 674.00030448    
                            current damping = 0.400
 
          Norm of current diis error: 0.55077E-05
          max. resid. norm for Fia-block=  4.271D-08 for orbital    309a         
          max. resid. fock norm         =  9.571D-08 for orbital   7258a         

 End of SCF iterations

   convergence criteria satisfied after   19 iterations


                  ------------------------------------------ 
                 |  total energy      =  -4661.79890471696  |
                  ------------------------------------------ 
                 :  kinetic energy    =   4642.62043209683  :
                 :  potential energy  =  -9304.41933681378  :
                 :  virial theorem    =      1.99588603605  :
                 :  wavefunction norm =      1.00000000000  :
                  .......................................... 


 <geterg> : there is no data group $energy 


 <skperg> : $end is missing 


 orbitals $scfmo  will be written to file mos

    irrep                333a        334a        335a        336a        337a   
 eigenvalues H         -0.21756    -0.21672    -0.21498    -0.21221    -0.20672
            eV          -5.9203     -5.8972     -5.8499     -5.7745     -5.6252
 occupation              2.0000      2.0000      2.0000      2.0000      2.0000 

    irrep                338a        339a        340a        341a        342a   
 eigenvalues H         -0.03822    -0.03370    -0.03239    -0.01795    -0.01337
            eV          -1.0401     -0.9171     -0.8813     -0.4883     -0.3637
 
 
 ! grave: sending quit signal to master process
 
 
 
 
 ==============================================================================
                           electrostatic moments
 ==============================================================================

 reference point for electrostatic moments:    0.00000   0.00000   0.00000

 
              nuc           elec       ->  total
 ------------------------------------------------------------------------------
                          charge      
 ------------------------------------------------------------------------------
         674.000000    -674.000000       0.000000
 
 ------------------------------------------------------------------------------
                       dipole moment  
 ------------------------------------------------------------------------------
   x     -30.690607      31.745207       1.054600
   y      -5.523751       5.578649       0.054898
   z      -1.724794       2.899028       1.174234
 
   | dipole moment | =     1.5792 a.u. =     4.0140 debye 
 
 ------------------------------------------------------------------------------
                     quadrupole moment
 ------------------------------------------------------------------------------
  xx   34894.332287  -35255.602888    -361.270601
  yy   19838.013910  -20228.753854    -390.739944
  zz   21575.429038  -21962.377379    -386.948341
  xy    -837.281149     848.808526      11.527378
  xz     223.252767    -249.763588     -26.510821
  yz  -13602.762700   13591.069982     -11.692718
 
     1/3  trace=    -379.652962
     anisotropy=      60.731816
 
 ==============================================================================
 

    ridft profiling
  --------------------------------------------------------------------
             module   cpu total (s)       %  wall total (s)       %

               RIDFT         26537.4  100.00         26898.1  100.00
         Ridft_b_scf          1031.6    3.89          1089.2    4.05
        b_scf_prelim             0.0    0.00             0.0    0.00
        b_scf_molinp             0.0    0.00             0.0    0.00
         b_scf_init0             0.0    0.00             0.0    0.00
        b_scf_auxbas             0.0    0.00             0.0    0.00
      b_scf_symmetry             0.0    0.00             0.0    0.00
         b_scf_cosmo             0.0    0.00             0.0    0.00
        b_scf_params            76.0    0.29           104.0    0.39
          b_scf_ri-j           273.5    1.03           302.2    1.12
    b_scf_ri-j_auxpq           273.1    1.03           301.7    1.12
     ri-j_auxpq_chol            13.5    0.05            16.6    0.06
         b_scf_1elec            38.9    0.15            39.0    0.14
       b_scf_moinput           643.1    2.42           643.9    2.39
     moinput_orthmos           639.1    2.41           639.9    2.38
    b_scf_dft-dstmax             0.0    0.00             0.0    0.00
           Ridft_scf         25495.5   96.07         25796.2   95.90
          Scf_b_loop             0.0    0.00             0.0    0.00
                noga             0.0    0.00             0.0    0.00
            Scf_loop         25455.0   95.92         25738.0   95.69
     scf_loop_mkdmat           208.1    0.78           208.5    0.78
       scf_loop_ri-j          6347.2   23.92          6352.9   23.62
      parlp1.bc.dens            10.2    0.04            10.2    0.04
        parlp1.gs.gp            70.6    0.27            70.7    0.26
        parlp2.bc.gq             0.0    0.00             0.0    0.00
        scf_loop_dft          9963.3   37.54         10066.9   37.43
      pardft.bc.dens             0.1    0.00             0.1    0.00
        dft_grid_con            20.5    0.08            20.6    0.08
           dft_xcrhf          9848.3   37.11          9945.7   36.98
          dft_getval           217.9    0.82           219.4    0.82
          funct2 dst             3.7    0.01             3.6    0.01
      funct2 f2loop1            29.7    0.11            30.0    0.11
      funct2 f2loop2            90.6    0.34            91.7    0.34
          funct2 s+c            91.0    0.34            91.4    0.34
        funct2 cmf_2            82.5    0.31            83.0    0.31
          dft_mkdens          4197.7   15.82          4255.7   15.82
         dft_gga-fun             1.7    0.01             1.7    0.01
          dft_mkfock          5428.3   20.46          5466.4   20.32
     pardft.red.fock           594.0    2.24           601.1    2.23
     scf_loop_energy             2.1    0.01             2.4    0.01
     scf_loop_mkfock             2.8    0.01             3.1    0.01
       scf_loop_diis          3406.3   12.84          3420.3   12.72
       scf_loop_diag          4076.0   15.36          4119.0   15.31
         diag_tritrn          1684.6    6.35          1698.1    6.31
          diag_rdiag          2384.5    8.99          2414.0    8.97
     scf_loop_modump           658.4    2.48           768.9    2.86
      scf_loop_ortho           766.4    2.89           767.7    2.85
          Scf_a_loop            40.5    0.15            58.2    0.22
         Ridft_a_scf            10.3    0.04            12.6    0.05
         a_scf_fanal            10.1    0.04            12.4    0.05
 


    ------------------------------------------------------------------------
         total  cpu-time :  7 hours 23 minutes and 10 seconds
         total wall-time :  7 hours 29 minutes and 11 seconds
    ------------------------------------------------------------------------


   ****  ridft : all done  ****


    2017-11-09 17:59:37.363 

