
   OpenMP run-time library returned nthreads = 28

 ricc2 (c-15-24) : TURBOMOLE V7.3 ( 22142 ) 4 Jul 2018 at 18:12:42
 Copyright (C) 2018 TURBOMOLE GmbH, Karlsruhe


    2019-04-01 22:37:34.767 



                              R I C C 2 - PROGRAM

                          the quantum chemistry groups
                             at the universities in
                           Karlsruhe, Bochum & Mainz
                                   Germany



   *-----------------------------------------------------------------------*
   |                     program will use 28 thread(s)                     |
   *-----------------------------------------------------------------------*


              +--------------------------------------------------+
              | Atomic coordinate, charge and isotop information |
              +--------------------------------------------------+

                    atomic coordinates            atom    charge  isotop
          1.56047746    2.33669330   -0.07606230    c      6.000     0
          2.87429833    3.89874160   -0.15584845    h      1.000     0
          2.45694619   -0.11894102    0.24047901    c      6.000     0
          4.46666540   -0.45780719    0.39244736    h      1.000     0
          0.76254818   -2.13265455    0.37462849    c      6.000     0
          1.46218198   -4.03915122    0.61250010    h      1.000     0
         -1.82889489   -1.69166486    0.19490624    c      6.000     0
         -3.14678896   -3.25029762    0.30316394    h      1.000     0
         -2.72783551    0.76436262   -0.11799696    c      6.000     0
         -4.73850953    1.10643677   -0.23460981    h      1.000     0
         -1.03132842    2.77557069   -0.25747029    c      6.000     0
         -1.72762902    4.68164948   -0.50617290    h      1.000     0
         -0.51944913    1.26911630    6.08235886    n      0.000     0
         -1.22489786    2.97319844    5.58556314    h      0.000     0
          2.11132684    1.13119104    6.33182791    c      0.000     0
          3.41695812    3.01037948    6.05813120    o      0.000     0
          3.01631690   -1.38985047    6.93296908    c      0.000     0
          5.01385586   -1.67749691    7.18642129    h      0.000     0
          1.35390738   -3.30675309    7.17148374    c      0.000     0
          1.93202661   -5.21239187    7.61845001    h      0.000     0
         -1.18823893   -2.95709343    6.85005617    n      0.000     0
         -2.41419466   -4.39812100    7.03689183    h      0.000     0
         -2.27378891   -0.64255492    6.28424455    c      0.000     0
         -4.53728097   -0.35754024    6.01569143    o      0.000     0
 
       center of nuclear mass  :    0.00792494   -0.07857788    3.82551049
       center of nuclear charge:   -0.13472152    0.32237545    0.06100918

              +--------------------------------------------------+
              |               basis set information              |
              +--------------------------------------------------+

              we will work with the 1s 3p 5d 7f 9g ... basis set
              ...i.e. with spherical basis functions...

   type   atoms  prim   cont   basis
   ---------------------------------------------------------------------------
    c       10     77     55   cc-pVQZ   [5s4p3d2f1g|21s6p3d2f1g]
    h       10     32     30   cc-pVQZ   [4s3p2d1f|6s3p2d1f]
    n        2     77     55   cc-pVQZ   [5s4p3d2f1g|21s6p3d2f1g]
    o        2     77     55   cc-pVQZ   [5s4p3d2f1g|21s6p3d2f1g]
   ---------------------------------------------------------------------------
   total:   24   1398   1070
   ---------------------------------------------------------------------------

   total number of primitive shells          :  111
   total number of contracted shells         :  310
   total number of cartesian basis functions : 1330
   total number of SCF-basis functions       : 1070


 symmetry group of the molecule :   c1 

 the group has the following generators :
   c1(z)

    1 symmetry operations found

 there are 1 real representations :   a   


   =========================================================================


     restricted closed shell calculation for the wavefunction models:
               MP2        - Second Order Moeller Plesset PT


     global parameters for ricc2 program:

        hard restart (reuse of interm.) :  disabled
        soft restart (reuse of vectors) :  disabled
        threshold for vector function   :    0.100000E-05
        convergence threshold energy    :    0.100000E-06
        linear dependence threshold     :    0.100000E-13
        global print level              :      1
        maximum number of iterations    :   300
        maximum number DIIS vectors     :    10
        max. dim. of reduced space      :   100
        core memory limit (MB)          : *****


     MP2 energy only: Energy will be calculated directly from T2 amplitudes!

     Scratch Directory : 


   =========================================================================

    der. integral neglect threshold  :  0.10E-07
    integral neglect threshold       :  0.25E-11
    integral storage threshold THIZE :  0.10E-04
    integral storage threshold THIME :         5


                  +------------------------------------------+
                  |     Auxiliary basis set information      |
                  +------------------------------------------+

              we will work with the 1s 3p 5d 7f 9g ... basis set
              ...i.e. with spherical basis functions...

   type   atoms  prim   cont   basis
   ---------------------------------------------------------------------------
    c       10    132    132   cc-pVQZ   [8s7p6d5f3g1h|8s7p6d5f3g1h]
    h       10     55     55   cc-pVQZ   [5s4p3d2f1g|5s4p3d2f1g]
    n        2    132    132   cc-pVQZ   [8s7p6d5f3g1h|8s7p6d5f3g1h]
    o        2    132    132   cc-pVQZ   [8s7p6d5f3g1h|8s7p6d5f3g1h]
   ---------------------------------------------------------------------------
   total:   24   2398   2398
   ---------------------------------------------------------------------------

   total number of primitive shells          :  105
   total number of contracted shells         :  570
   total number of cartesian basis functions : 3234
   total number of SCF-basis functions       : 2398


 maximum number of shells which are related by symmetry :  1


 The symmetry information takes   1 MB

*---------------------------------------------------------------------*
|               simplified C1 algorithm will be applied               |
*---------------------------------------------------------------------*
  MOs are in ASCII format !


 reading orbital data $scfmo  from file mos
 orbital characterization : scfconv=9



              +--------------------------------------------+
              | list of orbitals that will be kept frozen: |
              +--------------------------------------------+
              |   irrep   index      energy     occ/vir    |
              +--------------------------------------------+
              |   a         1      -11.2347     occupied   |
              |   a         2      -11.2342     occupied   |
              |   a         3      -11.2341     occupied   |
              |   a         4      -11.2329     occupied   |
              |   a         5      -11.2328     occupied   |
              |   a         6      -11.2323     occupied   |
              +--------------------------------------------+



   Molecular Orbital Statistic:
   ============================

   -----------------------------
   orbitals in total:
   -----------------------------
    frozen occupied :      6
    active occupied :     15
    active virtual  :   1049
    frozen virtual  :      0
    all together    :   1070
   -----------------------------


     time in riccmos       cpu: 11.92 sec    wall:  1.41 sec    ratio:  8.4

     total memory allocated for calculation of (Q|P)**(-1/2) : 66 MiB


     calculation of (P|Q) ...
     time in lp2sym        cpu:  6.55 sec    wall:  0.23 sec    ratio: 28.0


     calculation of the Cholesky decomposition of (P|Q)**(-1) ...
     time in invmetri      cpu: 40.18 sec    wall:  1.70 sec    ratio: 23.7

   threshold for RMS(d[D]) in SCF was     :  0.10E-06
   integral neglect threshold             :  0.25E-11
   derivative integral neglect threshold  :  0.10E-07


   =========================================================================

     Energy of reference wave function is  -230.7938678388000
     Maximum orbital residual is           0.1567791196950E-06


     Number of symmetry-nonredundant auxiliary basis functions:     2398

     Block lengths for integral files:
        frozen occupied (BOI):        1 MiB
        active occupied (BJI):        1 MiB
        active virtual  (BAI):       20 MiB
        frozen virtual  (BGI):        0 MiB
               general  (BTI):       20 MiB

   =========================================================================




   **************************************************************************
   *                                                                        *
   *          OPTIMIZATION OF THE GROUND STATE CLUSTER AMPLITUDES           *
   *                                                                        *
   **************************************************************************


   Iter.   MP2 energy       Norm(Omega)   Norm(t1)  Norm(t2)     cpu    wall
   ...........................................................................
    1   -231.8032248060     ------          0.00000   0.34514    8.40    0.31
   ...........................................................................


     time in total         cpu:  8 min 25 s  wall:  0 min 18 s  ratio: 27.5


     **********************************************************************
     *                                                                    *
     *   RHF  energy                             :   -230.7938678388      *
     *   MP2 correlation energy (doubles)        :     -1.0093569672      *
     *                                                                    *
     *   Final MP2 energy                        :   -231.8032248060      *
     *                                                                    *
     *    E(S)   =     -0.6414110917      E(T)   =     -0.3679458755      *
     *    E(OS)  =     -0.7640597169      E(SS)  =     -0.2452972503      *
     *                                                                    *
     *   SCS-MP2 energy                          :   -231.7925052492      *
     *   (computed with  C(OS) =   1.2000  and  C(SS) =   0.3333)         *
     *                                                                    *
     *   SOS-MP2 energy                          :   -231.7871454707      *
     *   (computed with  C(OS) =   1.3000)                                *
     *                                                                    *
     *   Norm of MP1 T2 amplitudes               :      0.3451350808      *
     *                                                                    *
     **********************************************************************



    ------------------------------------------------------------------------
         total  cpu-time : 12 minutes and 30 seconds
         total wall-time :  30.07 seconds
    ------------------------------------------------------------------------

   ****  ricc2 : all done  ****


    2019-04-01 22:38:04.794 

