
 eiger (gplogin1.local) : TURBOMOLE V7.2 ( 21285 ) 30 Jun 2017 at 11:51:10
 Copyright (C) 2017 TURBOMOLE GmbH, Karlsruhe


    2017-11-20 18:37:45.895 

                                                                                
  
 HOMO-LUMO Separation
   HOMO:   301.   301 a     -0.20888894 H =     -5.68416 eV
   LUMO:   302.   302 a     -0.03093047 H =     -0.84166 eV
   Gap :                    +0.17795847 H =     +4.84250 eV
 
Number of MOs=   6335, Electrons=    602.00, Symmetry: c1   
 
   Nr.   Orbital    Occupation       Energy
  318.   318 a                     +0.025369 H =        +0.690 eV
  317.   317 a                     +0.023366 H =        +0.636 eV
  316.   316 a                     +0.022887 H =        +0.623 eV
  315.   315 a                     +0.020006 H =        +0.544 eV
  314.   314 a                     +0.018214 H =        +0.496 eV
  313.   313 a                     +0.016814 H =        +0.458 eV
  312.   312 a                     +0.014545 H =        +0.396 eV
  311.   311 a                     +0.013290 H =        +0.362 eV
  310.   310 a                     +0.010886 H =        +0.296 eV
  309.   309 a                     +0.010193 H =        +0.277 eV
  308.   308 a                     +0.005072 H =        +0.138 eV
  307.   307 a                     +0.002025 H =        +0.055 eV
  306.   306 a                     -0.002205 H =        -0.060 eV
  305.   305 a                     -0.008331 H =        -0.227 eV
  304.   304 a                     -0.020026 H =        -0.545 eV
  303.   303 a                     -0.023456 H =        -0.638 eV
  302.   302 a                     -0.030930 H =        -0.842 eV
  301.   301 a        2.000        -0.208889 H =        -5.684 eV
  300.   300 a        2.000        -0.215682 H =        -5.869 eV
  299.   299 a        2.000        -0.216757 H =        -5.898 eV
  298.   298 a        2.000        -0.220810 H =        -6.009 eV
  297.   297 a        2.000        -0.221146 H =        -6.018 eV
  296.   296 a        2.000        -0.225103 H =        -6.125 eV
  295.   295 a        2.000        -0.226253 H =        -6.157 eV
  294.   294 a        2.000        -0.229940 H =        -6.257 eV
  293.   293 a        2.000        -0.231477 H =        -6.299 eV
  292.   292 a        2.000        -0.232856 H =        -6.336 eV
  291.   291 a        2.000        -0.235087 H =        -6.397 eV
  290.   290 a        2.000        -0.237887 H =        -6.473 eV
  289.   289 a        2.000        -0.239696 H =        -6.522 eV
  288.   288 a        2.000        -0.242176 H =        -6.590 eV
  287.   287 a        2.000        -0.243283 H =        -6.620 eV
  286.   286 a        2.000        -0.246077 H =        -6.696 eV


    ------------------------------------------------------------------------
         total  cpu-time :  29.67 seconds
         total wall-time :  29.93 seconds
    ------------------------------------------------------------------------

   ****  eiger : all done  ****


    2017-11-20 18:38:15.813 

