Using Slurm to start processes with PMI2
STARTING ridft ON 8 PROCESSORS!
RUNNING PROGRAM /modfac/apps/TURBOMOLE/7.0_intel_GA/bin/em64t-unknown-linux-gnu_mpi/ridft_mpi.
PLEASE WAIT UNTIL ridft HAS FINISHED.
Look for the output in slave1.output.
  this is node-proc. number 1 running on node c-15-25.local
  the total number of node-proc. spawned is            8
  parallel platform: MPP, or cluster with fast interconnect

 ridft (c-15-25.local) : TURBOMOLE V7.0.2( ) 15 Jan 2016 at 17:47:42
 Copyright (C) 2016 TURBOMOLE GmbH, Karlsruhe


    2016-02-16 07:15:11.381 



                                  r i d f t

                        DFT program with RI approximation 
                                for coulomb part 




                                                 
                                 References:     
                                                 
          TURBOMOLE:                             
              R. Ahlrichs, M. Baer, M. Haeser, H. Horn, and
              C. Koelmel
              Electronic structure calculations on workstation
              computers: the program system TURBOMOLE
              Chem. Phys. Lett. 162: 165 (1989)
          Density Functional:                              
              O. Treutler and R. Ahlrichs                      
              Efficient Molecular Numerical Integration Schemes
              J. Chem. Phys. 102: 346 (1995)                   
          Parallel Version:                                
              Performance of parallel TURBOMOLE for Density    
              Functional Calculations                          
              M. v. Arnim and R. Ahlrichs                      
              J. Comp. Chem. 19: 1746 (1998)                   
          RI-J Method:                                     
              Auxiliary Basis Sets to approximate Coulomb      
              Potentials                                       
              Chem. Phys. Lett. 240: 283 (1995)                
              K. Eichkorn, O. Treutler, H. Oehm, M. Haeser     
              and R. Ahlrichs                                  
              Chem. Phys. Lett. 242: 652 (1995)                
                                                           
              Auxiliary Basis Sets for Main Row Atoms and their
              Use to approximate Coulomb Potentials            
              K. Eichkorn, F. Weigend, O. Treutler and         
              R. Ahlrichs                                      
              Theo. Chem. Acc. 97: 119 (1997)                   
                                                           
              Accurate Coulomb-fitting basis sets for H to Rn 
              F. Weigend                                        
              Phys. Chem. Chem. Phys. 8: 1057 (2006)            
                                                           
          Multipole accelerated RI-J (MARI-J):             
              Fast evaluation of the Coulomb potential for     
              electron densities using multipole accelerated   
              resolution of identity approximation             
              M. Sierka, A. Hogekamp and R. Ahlrichs           
              J. Chem. Phys. 118: 9136 (2003)                  
          RI-JK Method:                                     
              A fully direct RI-HF algorithm: Implementation,
              optimised auxiliary basis sets, demonstration of
              accuracy and efficiency                         
              F. Weigend                                      
              Phys. Chem. Chem. Phys. 4: 4285 (2002)           
          Two-component HF and DFT with spin-orbit coupling:  
              Self-consistent treatment of spin-orbit         
              interactions with efficient Hartree-Fock and    
              density functional methods                      
              M. K. Armbruster, F. Weigend, C. van Wüllen and 
              W. Klopper                                      
              Phys. Chem. Chem. Phys. 10: 1748 (2008)         
          Relativistic all-electron 2c calculations           
              An efficient implementation of two-component    
              relativistic exact-decoupling methods for large 
              molecules                                       
              D. Peng, N. Middendorf, F. Weigend, M. Reiher   
              J. Chem. Phys. 138, 184105 (2013)               
                                         


 


              +--------------------------------------------------+
              |      general information about current run       |
              +--------------------------------------------------+

 

 SCF run will be profiled !


 DENSITY CONVERGENCE CHECK SWITCHED ON !
 SCF CONVERGENCE IF RMS(delta[D]) <     0.1000000000E-06

 TPSS meta-GGA functional
 exchange:    LDA + TPSS
 correlation: LDA (PW) + TPSS
 A DFT calculation using the RI-J approximation will be carried out.
 Allocatable memory for RI due to $ricore (MB):        5000


              +--------------------------------------------------+
              | Atomic coordinate, charge and isotop information |
              +--------------------------------------------------+

                    atomic coordinates            atom    charge  isotop
         -8.24559321    0.09512881   -5.82330446    o      8.000     0
         -5.11261626    6.43920400   -5.83658924    o      8.000     0
          2.10725251    8.07260768   -5.77211178    o      8.000     0
          7.74273709    3.79555273   -5.86986731    o      8.000     0
          6.95555277   -3.28462748   -5.64599146    o      8.000     0
          1.65982205   -8.12844909   -5.96845433    o      8.000     0
         -5.24121212   -6.39929299   -5.86038089    o      8.000     0
         -8.26503850    0.02827030    5.94468157    o      8.000     0
         -5.13151352    6.53008093    6.00600318    o      8.000     0
          1.73839686    7.89916862    6.04105760    o      8.000     0
          7.39990297    3.23220647    5.95817422    o      8.000     0
          7.64963028   -3.77195005    5.99487270    o      8.000     0
          1.80047437   -7.93490334    5.87026416    o      8.000     0
         -5.20698918   -6.28925423    5.90305090    o      8.000     0
         -9.74781211   -2.01395673   -2.26491236    n      7.000     0
         -9.72670386    2.21485351   -2.26188880    n      7.000     0
         -7.70235364    6.35675525   -2.28072937    n      7.000     0
         -4.25061768    8.79733655   -2.21919988    n      7.000     0
          0.24328334    9.74265315   -2.14708793    n      7.000     0
          4.41545849    9.03262635   -2.15016819    n      7.000     0
          8.04318465    6.18157764   -2.18140536    n      7.000     0
          9.73139039    2.30899967   -2.23656647    n      7.000     0
          9.57397620   -2.29369289   -2.25750463    n      7.000     0
          7.61667346   -6.04375991   -2.28564265    n      7.000     0
          4.06402612   -8.97670936   -2.38294465    n      7.000     0
         -0.05451860   -9.91146239   -2.32678199    n      7.000     0
         -4.54310949   -8.88910165   -2.30070377    n      7.000     0
         -7.78771257   -6.18033042   -2.27632631    n      7.000     0
         -9.82075553   -2.04260498    2.38746110    n      7.000     0
         -9.70421612    2.18085734    2.38693198    n      7.000     0
         -7.60452252    6.27253016    2.37291021    n      7.000     0
         -4.35047081    8.97138033    2.42971538    n      7.000     0
          0.15255759    9.97898230    2.50269660    n      7.000     0
          4.19562665    8.74771234    2.48652054    n      7.000     0
          7.77943557    5.87838998    2.46059350    n      7.000     0
          9.76642591    2.14695565    2.41297240    n      7.000     0
          9.78974513   -2.45868488    2.37984550    n      7.000     0
          7.87683206   -6.22360515    2.34772016    n      7.000     0
          4.13445622   -8.90767766    2.26629186    n      7.000     0
          0.00504557   -9.83052542    2.32772686    n      7.000     0
         -4.47872652   -8.77688972    2.34596271    n      7.000     0
         -7.83576831   -6.20724012    2.37512119    n      7.000     0
        -11.06251347   -1.37653321    0.04644947    c      6.000     0
        -11.01591283    1.58359050    0.06364598    c      6.000     0
         -5.77379364   -7.05313823   -3.72710685    c      6.000     0
         -2.53448179  -10.40037233   -3.36853132    c      6.000     0
         -7.93490334    7.72015486    0.07209305    c      6.000     0
         -5.58646509    9.51957098    0.05797680    c      6.000     0
          1.85635357   -8.88377263   -3.81170989    c      6.000     0
          6.45974533   -8.23731621   -3.45275641    c      6.000     0
          1.10771966   10.96842401    0.14635929    c      6.000     0
          3.98405291   10.28908636    0.23160483    c      6.000     0
          7.91715881   -3.80237464   -3.61886334    c      6.000     0
         10.63859121   -0.01201866   -3.34010984    c      6.000     0
          9.34136981    6.01754941    0.21463509    c      6.000     0
         10.63286534    3.35617251    0.12288889    c      6.000     0
          8.39244383    4.05393499   -3.68780055    c      6.000     0
         10.54344350   -3.52974385   -0.01721541    c      6.000     0
          9.18843427   -6.16175441   -0.04643057    c      6.000     0
         -9.67456632   -4.51967689   -3.35186393    c      6.000     0
         -9.10470051    0.09909724   -3.69666336    c      6.000     0
          3.76231245  -10.33880506   -0.03382610    c      6.000     0
          0.87496210  -10.98664097    0.00857936    c      6.000     0
         -9.62511219    4.72892626   -3.33572567    c      6.000     0
         -5.60968982    7.09359727   -3.69602086    c      6.000     0
         -5.81219287   -9.44496460    0.05245880    c      6.000     0
         -8.12336573   -7.59564081    0.04089367    c      6.000     0
         -2.19064612   10.23615513   -3.29245094    c      6.000     0
          2.23569719    8.82645723   -3.61175797    c      6.000     0
         -9.73995085   -4.56160991    3.44211725    c      6.000     0
         -9.12773627    0.05209975    3.81779481    c      6.000     0
          6.88175897    8.44862539   -3.17576036    c      6.000     0
         -5.75674831   -6.98121525    3.78574505    c      6.000     0
         -2.45826914  -10.26266799    3.43219619    c      6.000     0
         -9.54538464    4.68587830    3.46358454    c      6.000     0
         -5.61568025    7.15892510    3.85305710    c      6.000     0
          1.95306975   -8.76209316    3.73638541    c      6.000     0
          6.59128916   -8.40930019    3.36201176    c      6.000     0
         -2.33793138   10.47282443    3.51111115    c      6.000     0
          1.98870999    8.74340377    3.92241005    c      6.000     0
          8.32785299   -4.09660500    3.82767808    c      6.000     0
         10.81242712   -0.15690396    3.44258969    c      6.000     0
          6.58172715    8.04605703    3.61551852    c      6.000     0
          8.19264309    3.68608090    3.85266026    c      6.000     0
        -12.98408149   -2.17363859    0.01135725    h      1.000     0
         10.34103493   -0.18458845    5.45484566    h      1.000     0
          6.18641534    7.53807975    5.57977546    h      1.000     0
          7.88457993    9.66780110    3.52853443    h      1.000     0
         12.87341913   -0.13791221    3.17205649    h      1.000     0
          7.79396757  -10.08682897    3.10601056    h      1.000     0
         -2.78050524   12.48542056    3.24242989    h      1.000     0
         -2.26735011   10.00315190    5.52217660    h      1.000     0
          6.28889519   -8.03056128    5.37130087    h      1.000     0
         -2.93138097  -12.28074432    3.25724535    h      1.000     0
        -11.38947389    5.62779340    3.26019332    h      1.000     0
         -9.06618789    4.44852870    5.46009910    h      1.000     0
         -2.32084825   -9.71750090    5.42105736    h      1.000     0
          6.62369797    8.13510093   -5.20235935    h      1.000     0
         -9.28284499   -4.34718269    5.44611513    h      1.000     0
        -11.60339089   -5.45233232    3.20597708    h      1.000     0
          8.14702510   10.06243261   -2.83783953    h      1.000     0
         -9.96208815   -8.56909543    0.01717761    h      1.000     0
         -2.62205170   12.26710050   -3.13479109    h      1.000     0
         -6.35866388  -11.45196713    0.10797895    h      1.000     0
         -2.04045069    9.67957410   -5.27758935    h      1.000     0
          0.48811626  -13.03104119    0.04839589    h      1.000     0
        -11.48142796    5.63522002   -3.10264685    h      1.000     0
          4.98630696  -12.02228648   -0.02205310    h      1.000     0
         -9.17108659    4.50070404   -5.33908104    h      1.000     0
         10.50039554   -7.76913656   -0.19042770    h      1.000     0
        -11.54792743   -5.40062942   -3.14905853    h      1.000     0
         12.61609512   -3.66060739   -0.12477862    h      1.000     0
         -9.19062636   -4.28835551   -5.34813283    h      1.000     0
         12.71201762    3.44706834    0.11629375    h      1.000     0
         10.08312511    0.03441191   -5.33038830    h      1.000     0
         10.69705934    7.58613549    0.39470710    h      1.000     0
         12.70837045   -0.11032221   -3.16154961    h      1.000     0
          5.22256052   11.95406737    0.39153236    h      1.000     0
          7.79538486   -9.82665148   -3.32786441    h      1.000     0
          0.74358834   13.01458167    0.03856931    h      1.000     0
          6.08975585   -7.75254477   -5.42752022    h      1.000     0
         -6.09183455   11.53677804   -0.02656955    h      1.000     0
         -2.43474205   -9.92654240   -5.37782042    h      1.000     0
         -9.75217737    8.73282130    0.12916278    h      1.000     0
         -2.99478128  -12.41185352   -3.11158526    h      1.000     0
        -12.91183726    2.44039233    0.07834805    h      1.000     0
 
       center of nuclear mass  :   -0.00881622    0.00691785    0.06796446
       center of nuclear charge:   -0.00884417    0.00681585    0.06797656

              +--------------------------------------------------+
              |               basis set information              |
              +--------------------------------------------------+

              we will work with the 1s 3p 5d 7f 9g ... basis set
              ...i.e. with spherical basis functions...

   type   atoms  prim   cont   basis
   ---------------------------------------------------------------------------
    o       14     77     55   cc-pVQZ   [5s4p3d2f1g|21s6p3d2f1g]
    n       28     77     55   cc-pVQZ   [5s4p3d2f1g|21s6p3d2f1g]
    c       42     77     55   cc-pVQZ   [5s4p3d2f1g|21s6p3d2f1g]
    h       42     32     30   cc-pVQZ   [4s3p2d1f|6s3p2d1f]
   ---------------------------------------------------------------------------
   total:  126   7812   5880
   ---------------------------------------------------------------------------

   total number of primitive shells          :  111
   total number of contracted shells         : 1680
   total number of cartesian basis functions : 7350
   total number of SCF-basis functions       : 5880


 integral neglect threshold       :  0.45E-14
 integral storage threshold THIZE :  0.10E-04
 integral storage threshold THIME :         5

 RI-J AUXILIARY BASIS SET information:

              we will work with the 1s 3p 5d 7f 9g ... basis set
              ...i.e. with spherical basis functions...

   type   atoms  prim   cont   basis
   ---------------------------------------------------------------------------
    o       14     70     49   cc-pVQZ   [6s4p3d1f1g|12s5p4d2f1g]
    n       28     70     49   cc-pVQZ   [6s4p3d1f1g|12s5p4d2f1g]
    c       42     70     49   cc-pVQZ   [6s4p3d1f1g|12s5p4d2f1g]
    h       42     16     11   cc-pVQZ   [3s1p1d|5s2p1d]
   ---------------------------------------------------------------------------
   total:  126   6552   4578
   ---------------------------------------------------------------------------

   total number of primitive shells          :   80
   total number of contracted shells         : 1470
   total number of cartesian basis functions : 5628
   total number of SCF-basis functions       : 4578


 symmetry group of the molecule :   c1 

 the group has the following generators :
   c1(z)

    1 symmetry operations found

 there are 1 real representations :   a   

 maximum number of shells which are related by symmetry :  1


    mo occupation :
   irrep   mo's   occupied
    a     5880      301
 
 number of basis functions   :         5880
 number of occupied orbitals :          301
 
  
           ------------------
           density functional
           ------------------
 TPSS meta-GGA functional
 exchange:    LDA + TPSS
 correlation: LDA (PW) + TPSS
 grinp -> nfun, dfgga, dfhybrid 
           5 F F
 iterations will be done with small grid
  
 spherical integration : Lebedev's spherical grid
 spherical gridsize    :           5
    i.e. gridpoints    :         590
 value for diffuse not defined
 radial integration    : Chebyshev 2nd kind (scaling 3)
 radial gridsize       :           8
 integration cells     :         126
 partition function    : becke
 partition sharpness   :           3
  

 <rddim> : input of entry tasksize
           from data group '$pardft' failed !

               Default values taken

 <rddim> : input of entry memdiv
           from data group '$pardft' failed !

               Default values taken
  RIDFT: memory allocation for DFT gridpoints
  MEMORY is divided by 1 as DEFAULT
 Each node can hold at most  the            1 -th part
 of the gridpoints    

 biggest AO integral is expected to be     4.785886462
  
           ------------------------
               RI-J - INFORMATION
           ------------------------
 
 
 **************************************************
 *      MEMORY ALLOCATION FOR PARALLEL RI-DFT     *
 **************************************************
 
 
MEMORY FOR (MU NU/ ALPHA), SEQUENTIAL RUN               4824 MByte
 
            DIFFERENCE IN MEMORY NEED:       DIAG./SLAVE  
 
      TOTAL DIFFERENCE :                   1581 MByte
 
      difference in xcore:                  177 MByte
      difference in fatmat:                 465 MByte
      getcor calls skipped by slaves:       940 MByte
 
 
           Integral memory available for diagonal.      4824 MByte
 
           Integral memory available for slave             0 MByte
 
         MEMORY FOR (MU NU/ ALPHA) ON DIAGONALIZER      4824 MByte
 
         MEMORY FOR (MU NU/ ALPHA) ON ONE SLAVE            0 MByte
 
         TOTAL MEMORY FOR (MU NU/ ALPHA),ALL NODES      4824 MByte
 
 Contributions to RI integral batches: 
  neglected integral batches:     1038947
  direct contribution:             339694
  memory contribution:       33399
 Memory core needed for (P|Q) and Cholesky    160 MByte
 Memory core minimum needed except of (P|Q)    18 MByte
 Total minimum memory core needed (sum)       178 MByte
     number of direct tasks:         160
  
 ****************************************
 Memory allocated for RI-J  5001 MByte
 ****************************************
                                            

          ------------------------
          nuclear repulsion energy  :   16557.1076283    
          ------------------------

 
          -----------------
          -S integrals
          -----------------

 1e-integrals will be neglected if expon. factor < 0.454689E-15
 
          -----------------
          -T+V integrals
          -----------------

 1e-integrals will be neglected if expon. factor < 0.454689E-15
 Difference densities >>NOT<< switched on in parallel ridft!

 automatic virtual orbital shift switched on 
      shift if e(lumo)-e(homo) < 0.10000000    


 DIIS switched on: error vector is FDS-SDF
 Max. Iterations for DIIS is     :   4
 DIIS matrix (see manual) 
    Scaling factor of diagonals  :  1.200
    threshold for scaling factor :  0.000

 scf convergence criterion : increment of total energy < .1000000D-08
                  and increment of one-electron energy < .1000000D-05


 <geterg> : there is no data group $energy 

  MOs are in ASCII format !


 reading orbital data $scfmo  from file mos . 

 orbital characterization : expanded
 
 mo provided and orthogonalized by Cholesky decomposition

 DSCF restart information will be dumped onto file mos


 Starting SCF iterations


 ITERATION  ENERGY          1e-ENERGY        2e-ENERGY     RMS[dD(SAO)]   TOL
   1  -4197.4422430658    -38641.570378     17887.020507    0.000D+00 0.454D-14
                            Exc = -556.616487170     Coul =  18443.6369939    
                              N = 602.00079422    
                            current damping = 0.700
 
          max. resid. norm for Fia-block=  4.437D-01 for orbital    219a         
          max. resid. fock norm         =  8.809D+00 for orbital   5089a         

 ITERATION  ENERGY          1e-ENERGY        2e-ENERGY     RMS[dD(SAO)]   TOL
   2  -4211.8825492141    -38724.035996     17955.045819    0.418D-02 0.454D-14
                            Exc = -557.369522595     Coul =  18512.4153415    
                              N = 602.00068228    
                            current damping = 0.650
 
          Norm of current diis error:  10.370    
          max. resid. norm for Fia-block=  1.691D-01 for orbital      2a         
          max. resid. fock norm         =  3.442D-01 for orbital   5456a         

 ITERATION  ENERGY          1e-ENERGY        2e-ENERGY     RMS[dD(SAO)]   TOL
   3  -4213.9289857103    -38751.496935     17980.460321    0.148D-02 0.454D-14
                            Exc = -560.008060517     Coul =  18540.4683812    
                              N = 602.00062524    
                            current damping = 0.550
 
          Norm of current diis error:  5.0090    
          max. resid. norm for Fia-block=  6.483D-02 for orbital      2a         
          max. resid. fock norm         =  7.824D-02 for orbital   3090a         

 ITERATION  ENERGY          1e-ENERGY        2e-ENERGY     RMS[dD(SAO)]   TOL
   4  -4214.5441247727    -38763.684619     17992.032866    0.659D-03 0.454D-14
                            Exc = -559.522318524     Coul =  18551.5551843    
                              N = 602.00060810    
                            current damping = 0.450
 
          Norm of current diis error:  2.2278    
          max. resid. norm for Fia-block=  3.532D-02 for orbital    104a         
          max. resid. fock norm         =  8.454D-02 for orbital   5689a         

 ITERATION  ENERGY          1e-ENERGY        2e-ENERGY     RMS[dD(SAO)]   TOL
   5  -4214.6217935971    -38759.525059     17987.795638    0.330D-03 0.454D-14
                            Exc = -560.332530149     Coul =  18548.1281678    
                              N = 602.00058987    
                            current damping = 0.500
 
          Norm of current diis error:  1.6325    
          max. resid. norm for Fia-block=  1.373D-02 for orbital    266a         
          max. resid. fock norm         =  1.580D-02 for orbital    282a         
          mo-orthogonalization: Cholesky decomposition

 ITERATION  ENERGY          1e-ENERGY        2e-ENERGY     RMS[dD(SAO)]   TOL
   6  -4214.6925619233    -38767.935708     17996.135518    0.162D-03 0.454D-14
                            Exc = -560.363534231     Coul =  18556.4990520    
                              N = 602.00059754    
                            current damping = 0.550
 
          Norm of current diis error: 0.29911    
          max. resid. norm for Fia-block=  3.423D-03 for orbital    260a         
          max. resid. fock norm         =  5.520D-03 for orbital   5692a         

 ITERATION  ENERGY          1e-ENERGY        2e-ENERGY     RMS[dD(SAO)]   TOL
   7  -4214.6948047125    -38766.163424     17994.360991    0.675D-04 0.454D-14
                            Exc = -560.227434122     Coul =  18554.5884256    
                              N = 602.00059579    
                            current damping = 0.600
 
          Norm of current diis error: 0.12961    
          max. resid. norm for Fia-block=  1.403D-03 for orbital     97a         
          max. resid. fock norm         =  2.505D-03 for orbital   5678a         

 ITERATION  ENERGY          1e-ENERGY        2e-ENERGY     RMS[dD(SAO)]   TOL
   8  -4214.6951961462    -38766.611870     17994.809046    0.186D-04 0.454D-14
                            Exc = -560.260850603     Coul =  18555.0698965    
                              N = 602.00059664    
                            current damping = 0.650
 
          Norm of current diis error: 0.33023E-01
          max. resid. norm for Fia-block=  5.644D-04 for orbital     97a         
          max. resid. fock norm         =  1.317D-03 for orbital   5675a         

 ITERATION  ENERGY          1e-ENERGY        2e-ENERGY     RMS[dD(SAO)]   TOL
   9  -4214.6952260195    -38766.842475     17995.039621    0.506D-05 0.454D-14
                            Exc = -560.282537151     Coul =  18555.3221583    
                              N = 602.00059658    
                            current damping = 0.500
 
          Norm of current diis error: 0.15702E-01
          max. resid. norm for Fia-block=  2.305D-04 for orbital    285a         
          max. resid. fock norm         =  3.299D-04 for orbital   5879a         

 ITERATION  ENERGY          1e-ENERGY        2e-ENERGY     RMS[dD(SAO)]   TOL
  10  -4214.6952301415    -38766.877374     17995.074515    0.401D-05 0.454D-14
                            Exc = -560.278630893     Coul =  18555.3531464    
                              N = 602.00059677    
                            current damping = 0.350
 
          Norm of current diis error: 0.12117E-01
          max. resid. norm for Fia-block=  1.213D-04 for orbital    282a         
          max. resid. fock norm         =  2.758D-04 for orbital   5149a         
          mo-orthogonalization: Cholesky decomposition

 ITERATION  ENERGY          1e-ENERGY        2e-ENERGY     RMS[dD(SAO)]   TOL
  11  -4214.6952335227    -38766.792908     17994.990046    0.163D-05 0.454D-14
                            Exc = -560.277780231     Coul =  18555.2678261    
                              N = 602.00059675    
                            current damping = 0.400
 
          Norm of current diis error: 0.45453E-02
          max. resid. norm for Fia-block=  3.576D-05 for orbital    177a         
          max. resid. fock norm         =  6.731D-05 for orbital   4818a         

 ITERATION  ENERGY          1e-ENERGY        2e-ENERGY     RMS[dD(SAO)]   TOL
  12  -4214.6952339495    -38766.840977     17995.038115    0.360D-06 0.454D-14
                            Exc = -560.279487332     Coul =  18555.3176022    
                              N = 602.00059677    
                            current damping = 0.450
 
          Norm of current diis error: 0.18354E-02
          max. resid. norm for Fia-block=  2.036D-05 for orbital    272a         
          max. resid. fock norm         =  4.646D-05 for orbital   5859a         

 ITERATION  ENERGY          1e-ENERGY        2e-ENERGY     RMS[dD(SAO)]   TOL
  13  -4214.6952340067    -38766.840159     17995.037297    0.163D-06 0.454D-14
                            Exc = -560.279932429     Coul =  18555.3172291    
                              N = 602.00059676    
                            current damping = 0.500
 
          Norm of current diis error: 0.80043E-03
          max. resid. norm for Fia-block=  1.109D-05 for orbital    283a         
          max. resid. fock norm         =  1.845D-05 for orbital   5874a         

 DENSITY CONVERGED !


 ITERATION  ENERGY          1e-ENERGY        2e-ENERGY     RMS[dD(SAO)]   TOL
  14  -4214.6952340200    -38766.837212     17995.034350    0.923D-07 0.454D-14
                            Exc = -560.279523035     Coul =  18555.3138726    
                              N = 602.00059677    
                            current damping = 0.350
 
          Norm of current diis error: 0.38403E-03
          max. resid. norm for Fia-block=  3.506D-06 for orbital    272a         
          max. resid. fock norm         =  7.377D-06 for orbital   5874a         

 DENSITY CONVERGED !


 ITERATION  ENERGY          1e-ENERGY        2e-ENERGY     RMS[dD(SAO)]   TOL
  15  -4214.6952340235    -38766.836758     17995.033896    0.318D-07 0.454D-14
                            Exc = -560.279545442     Coul =  18555.3134416    
                              N = 602.00059677    
                            current damping = 0.200
 
          Norm of current diis error: 0.10793E-03
          max. resid. norm for Fia-block=  1.799D-06 for orbital    245a         
          max. resid. fock norm         =  4.741D-06 for orbital   5874a         
          mo-orthogonalization: Cholesky decomposition

 DENSITY CONVERGED !


 ITERATION  ENERGY          1e-ENERGY        2e-ENERGY     RMS[dD(SAO)]   TOL
  16  -4214.6952340235    -38766.837125     17995.034263    0.128D-07 0.454D-14
                            Exc = -560.279587231     Coul =  18555.3138499    
                              N = 602.00059677    
                            current damping = 0.250
 
          Norm of current diis error: 0.12731E-03
          max. resid. norm for Fia-block=  9.113D-07 for orbital    280a         
          max. resid. fock norm         =  1.879D-06 for orbital   5873a         

 DENSITY CONVERGED !


 ITERATION  ENERGY          1e-ENERGY        2e-ENERGY     RMS[dD(SAO)]   TOL
  17  -4214.6952340235    -38766.837569     17995.034707    0.635D-08 0.454D-14
                            Exc = -560.279582956     Coul =  18555.3142896    
                              N = 602.00059677    
                            current damping = 0.100
 
          Norm of current diis error: 0.48084E-04
          max. resid. norm for Fia-block=  2.611D-07 for orbital    278a         
          max. resid. fock norm         =  4.667D-07 for orbital   5874a         

 DENSITY CONVERGED !


 ITERATION  ENERGY          1e-ENERGY        2e-ENERGY     RMS[dD(SAO)]   TOL
  18  -4214.6952340237    -38766.837196     17995.034334    0.292D-08 0.454D-14
                            Exc = -560.279571528     Coul =  18555.3139051    
                              N = 602.00059677    
                            current damping = 0.150
 
          Norm of current diis error: 0.10597E-04
          max. resid. norm for Fia-block=  1.183D-07 for orbital    280a         
          max. resid. fock norm         =  2.293D-07 for orbital   5139a         

 ENERGY & DENSITY CONVERGED !


 ITERATION  ENERGY          1e-ENERGY        2e-ENERGY     RMS[dD(SAO)]   TOL
  19  -4214.6941737006    -38766.837212     17995.035410    0.108D-08 0.454D-14
                            Exc = -560.278508570     Coul =  18555.3139183    
                              N = 601.99996265    
                            current damping = 0.200
 
          Norm of current diis error: 0.82643E-05
          max. resid. norm for Fia-block=  6.374D-08 for orbital    278a         
          max. resid. fock norm         =  1.833D-07 for orbital   5859a         

 End of SCF iterations

   convergence criteria satisfied after   19 iterations


                  ------------------------------------------ 
                 |  total energy      =  -4214.69417370058  |
                  ------------------------------------------ 
                 :  kinetic energy    =   4197.84394701210  :
                 :  potential energy  =  -8412.53812071268  :
                 :  virial theorem    =      1.99600202862  :
                 :  wavefunction norm =      1.00000000000  :
                  .......................................... 


 <geterg> : there is no data group $energy 


 <skperg> : $end is missing 


 orbitals $scfmo  will be written to file mos

    irrep                297a        298a        299a        300a        301a   
 eigenvalues H         -0.21908    -0.21668    -0.21373    -0.21328    -0.20745
            eV          -5.9616     -5.8963     -5.8160     -5.8037     -5.6451
 occupation              2.0000      2.0000      2.0000      2.0000      2.0000 

    irrep                302a        303a        304a        305a        306a   
 eigenvalues H         -0.02671    -0.02350    -0.02315    -0.01512    -0.01486
            eV          -0.7268     -0.6394     -0.6300     -0.4116     -0.4044
 
 
 ! grave: sending quit signal to master process
 
 
 
 
 ==============================================================================
                           electrostatic moments
 ==============================================================================

 reference point for electrostatic moments:    0.00000   0.00000   0.00000

 
              nuc           elec       ->  total
 ------------------------------------------------------------------------------
                          charge      
 ------------------------------------------------------------------------------
         602.000000    -602.000000      -0.000000
 
 ------------------------------------------------------------------------------
                       dipole moment  
 ------------------------------------------------------------------------------
   x      -5.324190       5.309350      -0.014840
   y       4.103143      -4.127222      -0.024079
   z      40.921887     -40.914362       0.007525
 
   | dipole moment | =     0.0293 a.u. =     0.0744 debye 
 
 ------------------------------------------------------------------------------
                     quadrupole moment
 ------------------------------------------------------------------------------
  xx   30120.332275  -30358.706289    -238.374014
  yy   29633.104329  -29872.499378    -239.395048
  zz    7661.110757   -8112.538860    -451.428103
  xy     130.657382    -130.509846       0.147536
  xz      47.599098     -47.985862      -0.386764
  yz     143.065647    -140.967073       2.098574
 
     1/3  trace=    -309.732388
     anisotropy=     212.577699
 
 ==============================================================================
 

    ridft profiling
  --------------------------------------------------------------------
             module   cpu total (s)       %  wall total (s)       %

               RIDFT         21417.4  100.00         21537.1  100.00
         Ridft_b_scf           506.7    2.37           506.8    2.35
        b_scf_prelim             0.0    0.00             0.0    0.00
        b_scf_molinp             0.0    0.00             0.0    0.00
         b_scf_init0             0.0    0.00             0.0    0.00
        b_scf_auxbas             0.0    0.00             0.0    0.00
      b_scf_symmetry             0.0    0.00             0.0    0.00
         b_scf_cosmo             0.0    0.00             0.0    0.00
        b_scf_params            82.3    0.38            82.3    0.38
          b_scf_ri-j            86.5    0.40            86.5    0.40
    b_scf_ri-j_auxpq            86.2    0.40            86.2    0.40
     ri-j_auxpq_chol            10.0    0.05            10.0    0.05
         b_scf_1elec            23.4    0.11            23.4    0.11
       b_scf_moinput           314.5    1.47           314.6    1.46
     moinput_orthmos           311.6    1.45           311.7    1.45
    b_scf_dft-dstmax             0.0    0.00             0.0    0.00
           Ridft_scf         20904.0   97.60         21023.5   97.62
          Scf_b_loop             0.0    0.00             0.0    0.00
                noga             0.0    0.00             0.0    0.00
            Scf_loop         20877.5   97.48         20991.1   97.46
     scf_loop_mkdmat           114.9    0.54           115.0    0.53
       scf_loop_ri-j          4523.3   21.12          4524.1   21.01
      parlp1.bc.dens             5.5    0.03             5.5    0.03
        parlp1.gs.gp            88.6    0.41            88.6    0.41
        parlp2.bc.gq             0.0    0.00             0.0    0.00
        scf_loop_dft         11413.0   53.29         11415.5   53.00
      pardft.bc.dens             0.0    0.00             0.0    0.00
        dft_grid_con            10.6    0.05            10.7    0.05
          dft_xcmrhf         11292.1   52.72         11294.5   52.44
          dft_getval           160.6    0.75           160.7    0.75
          funct2 dst             2.8    0.01             2.8    0.01
      funct2 f2loop1            21.6    0.10            21.9    0.10
      funct2 f2loop2            58.7    0.27            58.7    0.27
          funct2 s+c            75.5    0.35            75.6    0.35
        funct2 cmf_2            70.4    0.33            70.4    0.33
          dft_mkdens          5212.6   24.34          5213.7   24.21
        dft_mgga-fun             2.9    0.01             3.0    0.01
          dft_mkfock          5913.0   27.61          5914.2   27.46
     pardft.red.fock           852.6    3.98           852.8    3.96
     scf_loop_energy             1.4    0.01             1.4    0.01
     scf_loop_mkfock             1.4    0.01             1.4    0.01
       scf_loop_diis          1968.6    9.19          1969.0    9.14
       scf_loop_diag          2018.0    9.42          2018.5    9.37
         diag_tritrn           851.9    3.98           852.1    3.96
          diag_rdiag          1161.8    5.42          1162.1    5.40
     scf_loop_modump           438.3    2.05           547.6    2.54
      scf_loop_ortho           382.0    1.78           382.1    1.77
          Scf_a_loop            26.4    0.12            32.5    0.15
         Ridft_a_scf             6.7    0.03             6.8    0.03
         a_scf_fanal             6.6    0.03             6.6    0.03
 


    ------------------------------------------------------------------------
         total  cpu-time :  5 hours 57 minutes and 35 seconds
         total wall-time :  5 hours 59 minutes and 35 seconds
    ------------------------------------------------------------------------


   ****  ridft : all done  ****


    2016-02-16 13:14:46.546 

