=================================== SLURM JOB ===================================
Thu Aug 27 19:40:15 PDT 2015

The job will be started on the following node(s):
c-4-4

Slurm User:         magee
Run Directory:      /work/magee/793284
Job ID:             793284
Job Name:           _comp2b_fragB_rpa.pbe.def2-qzvp
Partition:          mf_nes2.8
Number of nodes:    1
Submitted From:     gplogin1.local:/data12/cmf/magee/RPA_Benchmarking/matt_calcs/S12L/frags/comp2b/fragB/rpa.pbe.def2-qzvp
=================================== SLURM JOB ===================================

--- SLURM job-script output ---
 operating system is UNIX !
 hostname is         c-4-4.local

 ridft (c-4-4.local) : TURBOMOLE V7.0( ) 6 Jul 2015 at 18:30:05
 Copyright (C) 2015 TURBOMOLE GmbH, Karlsruhe


    2015-08-27 19:40:15.664 



                                  r i d f t

                        DFT program with RI approximation 
                                for coulomb part 




                                                 
                                 References:     
                                                 
          TURBOMOLE:                             
              R. Ahlrichs, M. Baer, M. Haeser, H. Horn, and
              C. Koelmel
              Electronic structure calculations on workstation
              computers: the program system TURBOMOLE
              Chem. Phys. Lett. 162: 165 (1989)
          Density Functional:                              
              O. Treutler and R. Ahlrichs                      
              Efficient Molecular Numerical Integration Schemes
              J. Chem. Phys. 102: 346 (1995)                   
          Parallel Version:                                
              Performance of parallel TURBOMOLE for Density    
              Functional Calculations                          
              M. v. Arnim and R. Ahlrichs                      
              J. Comp. Chem. 19: 1746 (1998)                   
          RI-J Method:                                     
              Auxiliary Basis Sets to approximate Coulomb      
              Potentials                                       
              Chem. Phys. Lett. 240: 283 (1995)                
              K. Eichkorn, O. Treutler, H. Oehm, M. Haeser     
              and R. Ahlrichs                                  
              Chem. Phys. Lett. 242: 652 (1995)                
                                                           
              Auxiliary Basis Sets for Main Row Atoms and their
              Use to approximate Coulomb Potentials            
              K. Eichkorn, F. Weigend, O. Treutler and         
              R. Ahlrichs                                      
              Theo. Chem. Acc. 97: 119 (1997)                   
                                                           
              Accurate Coulomb-fitting basis sets for H to Rn 
              F. Weigend                                        
              Phys. Chem. Chem. Phys. 8: 1057 (2006)            
                                                           
          Multipole accelerated RI-J (MARI-J):             
              Fast evaluation of the Coulomb potential for     
              electron densities using multipole accelerated   
              resolution of identity approximation             
              M. Sierka, A. Hogekamp and R. Ahlrichs           
              J. Chem. Phys. 118: 9136 (2003)                  
          RI-JK Method:                                     
              A fully direct RI-HF algorithm: Implementation,
              optimised auxiliary basis sets, demonstration of
              accuracy and efficiency                         
              F. Weigend                                      
              Phys. Chem. Chem. Phys. 4: 4285 (2002)           
          Two-component HF and DFT with spin-orbit coupling:  
              Self-consistent treatment of spin-orbit         
              interactions with efficient Hartree-Fock and    
              density functional methods                      
              M. K. Armbruster, F. Weigend, C. van Wüllen and 
              W. Klopper                                      
              Phys. Chem. Chem. Phys. 10: 1748 (2008)         
          Relativistic all-electron 2c calculations           
              An efficient implementation of two-component    
              relativistic exact-decoupling methods for large 
              molecules                                       
              D. Peng, N. Middendorf, F. Weigend, M. Reiher   
              J. Chem. Phys. 138, 184105 (2013)               
                                         


 


              +--------------------------------------------------+
              |      general information about current run       |
              +--------------------------------------------------+

 
 PBE functional
 exchange:    LDA + PBE
 correlation: LDA (PW) + PBE
 A DFT calculation using the RI-J approximation will be carried out.
 Allocatable memory for RI due to $ricore (MB):        3000


              +--------------------------------------------------+
              | Atomic coordinate, charge and isotop information |
              +--------------------------------------------------+

                    atomic coordinates            atom    charge  isotop
          2.30186531    1.31056323    0.00000000    c      6.000     0
          2.30186531   -1.31056323    0.00000000    c      6.000     0
         -2.30186531   -1.31056323    0.00000000    c      6.000     0
         -2.30186531    1.31056323    0.00000000    c      6.000     0
          0.00000000    2.63574674    0.00000000    c      6.000     0
          0.00000000   -2.63574674    0.00000000    c      6.000     0
          0.00000000    5.33572864    0.00000000    c      6.000     0
          0.00000000   -5.33572864    0.00000000    c      6.000     0
          0.00000000    7.53232554    0.00000000    n      7.000     0
          0.00000000   -7.53232554    0.00000000    n      7.000     0
         -4.06854322   -2.34920594    0.00000000    h      1.000     0
         -4.06854322    2.34920594    0.00000000    h      1.000     0
          4.06854322    2.34920594    0.00000000    h      1.000     0
          4.06854322   -2.34920594    0.00000000    h      1.000     0
 
       center of nuclear mass  :    0.00000000    0.00000000    0.00000000
       center of nuclear charge:    0.00000000    0.00000000    0.00000000

              +--------------------------------------------------+
              |               basis set information              |
              +--------------------------------------------------+

              we will work with the 1s 3p 5d 7f 9g ... basis set
              ...i.e. with spherical basis functions...

   type   atoms  prim   cont   basis
   ---------------------------------------------------------------------------
    c        8     77     57   def2-QZVP   [7s4p3d2f1g|15s8p3d2f1g]
    n        2     77     57   def2-QZVP   [7s4p3d2f1g|15s8p3d2f1g]
    h        4     33     30   def2-QZVP   [4s3p2d1f|7s3p2d1f]
   ---------------------------------------------------------------------------
   total:   14    902    690
   ---------------------------------------------------------------------------

   total number of primitive shells          :   71
   total number of contracted shells         :  210
   total number of cartesian basis functions :  860
   total number of SCF-basis functions       :  690


 integral neglect threshold       :  0.39E-13
 integral storage threshold THIZE :  0.10E-04
 integral storage threshold THIME :         5

 RI-J AUXILIARY BASIS SET information:

              we will work with the 1s 3p 5d 7f 9g ... basis set
              ...i.e. with spherical basis functions...

   type   atoms  prim   cont   basis
   ---------------------------------------------------------------------------
    c        8     70     49   def2-QZVP   [6s4p3d1f1g|12s5p4d2f1g]
    n        2     70     49   def2-QZVP   [6s4p3d1f1g|12s5p4d2f1g]
    h        4     16     11   def2-QZVP   [3s1p1d|5s2p1d]
   ---------------------------------------------------------------------------
   total:   14    764    534
   ---------------------------------------------------------------------------

   total number of primitive shells          :   56
   total number of contracted shells         :  170
   total number of cartesian basis functions :  658
   total number of SCF-basis functions       :  534


 symmetry group of the molecule :   c1 

 the group has the following generators :
   c1(z)

    1 symmetry operations found

 there are 1 real representations :   a   

 maximum number of shells which are related by symmetry :  1


    mo occupation :
   irrep   mo's   occupied
    a      690       33
 
 number of basis functions   :          690
 number of occupied orbitals :           33
 
  
           ------------------
           density functional
           ------------------
 PBE functional
 exchange:    LDA + PBE
 correlation: LDA (PW) + PBE
 spherical integration : Lebedev's spherical grid
 spherical gridsize    :           6
    i.e. gridpoints    :         974
 value for diffuse not defined
 radial integration    : Chebyshev 2nd kind (scaling 3)
 radial gridsize       :          10
 integration cells     :          14
 partition function    : becke
 partition sharpness   :           3
  

 biggest AO integral is expected to be     6.129561670
  
           ------------------------
               RI-J - INFORMATION
           ------------------------
 Contributions to RI integral batches: 
  neglected integral batches:        4697
  direct contribution:                  0
  memory contribution:       17458
 Memory core needed for (P|Q) and Cholesky      3 MByte
 Memory core minimum needed except of (P|Q)     3 MByte
 Total minimum memory core needed (sum)         5 MByte
  
 ****************************************
 Memory allocated for RI-J  1505 MByte
 ****************************************
                                            

          ------------------------
          nuclear repulsion energy  :   406.497496023    
          ------------------------

 
          -----------------
          -S,T+V- integrals
          -----------------

 1e-integrals will be neglected if expon. factor < 0.388600E-14
 
   Difference densities algorithm switched on.
   The maximal number of linear combinations of
   difference densities is          20 .

 automatic virtual orbital shift switched on 
      shift if e(lumo)-e(homo) < 0.10000000    


 DIIS switched on: error vector is FDS-SDF
 Max. Iterations for DIIS is     :   4
 DIIS matrix (see manual) 
    Scaling factor of diagonals  :  1.200
    threshold for scaling factor :  0.000

 scf convergence criterion : increment of total energy < .1000000D-08
                  and increment of one-electron energy < .1000000D-05


 <geterg> : there is no data group $energy 

  MOs are in ASCII format !


 reading orbital data $scfmo  from file mos . 

 orbital characterization : expanded
 
 mo provided and orthogonalized by Cholesky decomposition

 DSCF restart information will be dumped onto file mos


 Starting SCF iterations

          Overall gridpoints after grid construction =        471008

 ITERATION  ENERGY          1e-ENERGY        2e-ENERGY     NORM[dD(SAO)]  TOL
   1  -414.16508655765    -1347.0711008     526.40851821    0.000D+00 0.388D-13
                            Exc = -56.9704326473     Coul =  583.378950856    
                              N = 65.999999692    
                            current damping = 0.700
 
          max. resid. norm for Fia-block=  5.947D-01 for orbital     12a         
          max. resid. fock norm         =  5.694D+01 for orbital    594a         

 ITERATION  ENERGY          1e-ENERGY        2e-ENERGY     NORM[dD(SAO)]  TOL
   2  -416.05412793866    -1360.0945976     537.54297363    0.210D+01 0.299D-13
                            Exc = -57.5926689669     Coul =  595.135642598    
                              N = 65.999999731    
                            current damping = 0.650
 
          Norm of current diis error:  3.7031    
          max. resid. norm for Fia-block=  1.680D-01 for orbital      1a         
          max. resid. fock norm         =  4.093D-01 for orbital    652a         

 ITERATION  ENERGY          1e-ENERGY        2e-ENERGY     NORM[dD(SAO)]  TOL
   3  -416.29101050844    -1363.6804034     540.89189689    0.101D+01 0.227D-13
                            Exc = -57.9654614238     Coul =  598.857358318    
                              N = 65.999999752    
                            current damping = 0.550
 
          Norm of current diis error:  1.9108    
          max. resid. norm for Fia-block=  6.893D-02 for orbital      2a         
          max. resid. fock norm         =  7.842D-02 for orbital    126a         

 ITERATION  ENERGY          1e-ENERGY        2e-ENERGY     NORM[dD(SAO)]  TOL
   4  -416.37410338733    -1365.5291286     542.65752923    0.385D+00 0.182D-13
                            Exc = -57.9406508745     Coul =  600.598180106    
                              N = 65.999999755    
                            current damping = 0.450
 
          Norm of current diis error: 0.93817    
          max. resid. norm for Fia-block=  4.448D-02 for orbital     13a         
          max. resid. fock norm         =  7.854D-02 for orbital    583a         

 ITERATION  ENERGY          1e-ENERGY        2e-ENERGY     NORM[dD(SAO)]  TOL
   5  -416.39098088246    -1365.7567058     542.86822887    0.196D+00 0.164D-13
                            Exc = -58.0727636467     Coul =  600.940992520    
                              N = 65.999999753    
                            current damping = 0.300
 
          Norm of current diis error: 0.48001    
          max. resid. norm for Fia-block=  1.107D-02 for orbital     30a         
          max. resid. fock norm         =  1.200D-02 for orbital    686a         
          mo-orthogonalization: Cholesky decomposition

 ITERATION  ENERGY          1e-ENERGY        2e-ENERGY     NORM[dD(SAO)]  TOL
   6  -416.39723971449    -1366.1374479     543.24271213    0.508D-01 0.153D-13
                            Exc = -58.0587784147     Coul =  601.301490547    
                              N = 65.999999752    
                            current damping = 0.150
 
          Norm of current diis error: 0.10493    
          max. resid. norm for Fia-block=  3.355D-03 for orbital     12a         
          max. resid. fock norm         =  6.325D-03 for orbital    688a         

 ITERATION  ENERGY          1e-ENERGY        2e-ENERGY     NORM[dD(SAO)]  TOL
   7  -416.39743719799    -1366.1569671     543.26203387    0.166D-01 0.148D-13
                            Exc = -58.0641664351     Coul =  601.326200304    
                              N = 65.999999751    
                            current damping = 0.050
 
          Norm of current diis error: 0.56240E-01
          max. resid. norm for Fia-block=  1.582D-03 for orbital     19a         
          max. resid. fock norm         =  3.771D-03 for orbital    688a         

 ITERATION  ENERGY          1e-ENERGY        2e-ENERGY     NORM[dD(SAO)]  TOL
   8  -416.39750293680    -1366.1179379     543.22293893    0.436D-02 0.147D-13
                            Exc = -58.0643950486     Coul =  601.287333974    
                              N = 65.999999751    
                            current damping = 0.100
 
          Norm of current diis error: 0.21521E-01
          max. resid. norm for Fia-block=  3.758D-04 for orbital     18a         
          max. resid. fock norm         =  7.460D-04 for orbital    688a         

 ITERATION  ENERGY          1e-ENERGY        2e-ENERGY     NORM[dD(SAO)]  TOL
   9  -416.39751171972    -1366.1619234     543.26691565    0.147D-02 0.145D-13
                            Exc = -58.0657610318     Coul =  601.332676684    
                              N = 65.999999751    
                            current damping = 0.150
 
          Norm of current diis error: 0.60677E-02
          max. resid. norm for Fia-block=  1.318D-04 for orbital     22a         
          max. resid. fock norm         =  1.763D-04 for orbital     22a         

 ITERATION  ENERGY          1e-ENERGY        2e-ENERGY     NORM[dD(SAO)]  TOL
  10  -416.39751248466    -1366.1431289     543.24812037    0.231D-03 0.145D-13
                            Exc = -58.0646875883     Coul =  601.312807961    
                              N = 65.999999751    
                            current damping = 0.200
 
          Norm of current diis error: 0.14833E-02
          max. resid. norm for Fia-block=  3.623D-05 for orbital     28a         
          max. resid. fock norm         =  6.885D-05 for orbital    684a         
          mo-orthogonalization: Cholesky decomposition

 ITERATION  ENERGY          1e-ENERGY        2e-ENERGY     NORM[dD(SAO)]  TOL
  11  -416.39751252268    -1366.1469539     543.25194539    0.777D-04 0.144D-13
                            Exc = -58.0650529920     Coul =  601.316998379    
                              N = 65.999999751    
                            current damping = 0.250
 
          Norm of current diis error: 0.90363E-03
          max. resid. norm for Fia-block=  2.006D-05 for orbital     30a         
          max. resid. fock norm         =  3.243D-05 for orbital    686a         

 ITERATION  ENERGY          1e-ENERGY        2e-ENERGY     NORM[dD(SAO)]  TOL
  12  -416.39751253499    -1366.1471680     543.25215949    0.994D-05 0.143D-13
                            Exc = -58.0649679589     Coul =  601.317127448    
                              N = 65.999999751    
                            current damping = 0.100
 
          Norm of current diis error: 0.47730E-03
          max. resid. norm for Fia-block=  1.010D-05 for orbital     30a         
          max. resid. fock norm         =  1.441D-05 for orbital    688a         

 ITERATION  ENERGY          1e-ENERGY        2e-ENERGY     NORM[dD(SAO)]  TOL
  13  -416.39751253957    -1366.1470174     543.25200881    0.899D-05 0.142D-13
                            Exc = -58.0650044320     Coul =  601.317013240    
                              N = 65.999999751    
                            current damping = 0.150
 
          Norm of current diis error: 0.19843E-03
          max. resid. norm for Fia-block=  4.636D-06 for orbital     29a         
          max. resid. fock norm         =  7.108D-06 for orbital    681a         

 ITERATION  ENERGY          1e-ENERGY        2e-ENERGY     NORM[dD(SAO)]  TOL
  14  -416.39751254036    -1366.1469775     543.25196894    0.148D-05 0.142D-13
                            Exc = -58.0649777770     Coul =  601.316946715    
                              N = 65.999999751    
                            current damping = 0.050
 
          Norm of current diis error: 0.96903E-04
          max. resid. norm for Fia-block=  2.204D-06 for orbital     29a         
          max. resid. fock norm         =  4.289D-06 for orbital    686a         

 ITERATION  ENERGY          1e-ENERGY        2e-ENERGY     NORM[dD(SAO)]  TOL
  15  -416.39751254053    -1366.1468808     543.25187227    0.295D-06 0.141D-13
                            Exc = -58.0649844530     Coul =  601.316856719    
                              N = 65.999999751    
                            current damping = 0.050
 
          Norm of current diis error: 0.57669E-04
          max. resid. norm for Fia-block=  9.867D-07 for orbital     33a         
          max. resid. fock norm         =  1.897D-06 for orbital    688a         
          mo-orthogonalization: Cholesky decomposition

 ITERATION  ENERGY          1e-ENERGY        2e-ENERGY     NORM[dD(SAO)]  TOL
  16  -416.39751254062    -1366.1469934     543.25198481    0.758D-07 0.140D-13
                            Exc = -58.0649866092     Coul =  601.316971416    
                              N = 65.999999751    
                            current damping = 0.100
 
          Norm of current diis error: 0.17431E-04
          max. resid. norm for Fia-block=  3.506D-07 for orbital     33a         
          max. resid. fock norm         =  6.278D-07 for orbital    681a         

 ITERATION  ENERGY          1e-ENERGY        2e-ENERGY     NORM[dD(SAO)]  TOL
  17  -416.39751254062    -1366.1469532     543.25194464    0.105D-06 0.140D-13
                            Exc = -58.0649855193     Coul =  601.316930158    
                              N = 65.999999751    
                            current damping = 0.150
 
          Norm of current diis error: 0.10292E-04
          max. resid. norm for Fia-block=  1.616D-07 for orbital     30a         
          max. resid. fock norm         =  2.993D-07 for orbital    686a         

 ENERGY CONVERGED !


 ITERATION  ENERGY          1e-ENERGY        2e-ENERGY     NORM[dD(SAO)]  TOL
  18  -416.39751254061    -1366.1469567     543.25194812    0.321D-07 0.138D-13
                            Exc = -58.0649849492     Coul =  601.316933072    
                              N = 65.999999751    
                            current damping = 0.200
 
          Norm of current diis error: 0.32408E-05
          max. resid. norm for Fia-block=  6.046D-08 for orbital     30a         
          max. resid. fock norm         =  8.913D-08 for orbital    688a         

 End of SCF iterations

   convergence criteria satisfied after   18 iterations


                  ------------------------------------------ 
                 |  total energy      =   -416.39751254061  |
                  ------------------------------------------ 
                 :  kinetic energy    =    414.64117439499  :
                 :  potential energy  =   -831.03868693560  :
                 :  virial theorem    =      1.99578206379  :
                 :  wavefunction norm =      1.00000000000  :
                  .......................................... 


 <geterg> : there is no data group $energy 


 <skperg> : $end is missing 


 orbitals $scfmo  will be written to file mos

    irrep                 29a         30a         31a         32a         33a   
 eigenvalues H         -0.32285    -0.32039    -0.31984    -0.28617    -0.26752
            eV          -8.7853     -8.7183     -8.7034     -7.7871     -7.2795
 occupation              2.0000      2.0000      2.0000      2.0000      2.0000 

    irrep                 34a         35a         36a         37a         38a   
 eigenvalues H         -0.13091    -0.09485    -0.03574    -0.02850    -0.02421
            eV          -3.5624     -2.5809     -0.9726     -0.7756     -0.6587
 
 
 
 
 ==============================================================================
                           electrostatic moments
 ==============================================================================

 reference point for electrostatic moments:    0.00000   0.00000   0.00000

 
              nuc           elec       ->  total
 ------------------------------------------------------------------------------
                          charge      
 ------------------------------------------------------------------------------
          66.000000     -66.000000       0.000000
 
 ------------------------------------------------------------------------------
                       dipole moment  
 ------------------------------------------------------------------------------
   x       0.000000       0.000000       0.000000
   y       0.000000      -0.000000      -0.000000
   z       0.000000      -0.000000      -0.000000
 
   | dipole moment | =     0.0000 a.u. =     0.0000 debye 
 
 ------------------------------------------------------------------------------
                     quadrupole moment
 ------------------------------------------------------------------------------
  xx     193.378189    -228.795062     -35.416872
  yy    1282.605822   -1351.553348     -68.947527
  zz       0.000000     -43.130870     -43.130870
  xy       0.000000       0.000000       0.000000
  xz       0.000000      -0.000000      -0.000000
  yz       0.000000       0.000000       0.000000
 
     1/3  trace=     -49.165090
     anisotropy=      30.416363
 
 ==============================================================================
 
 


    ------------------------------------------------------------------------
         total  cpu-time : 15 minutes and 13 seconds
         total wall-time : 15 minutes and 13 seconds
    ------------------------------------------------------------------------


   ****  ridft : all done  ****


    2015-08-27 19:55:28.929 

 ridft ended normally
Job Done
