           Doing BLAS/Lapack in the master proc. with  8 CPUs.
           SMPCPUS    set: Shared-memory Parallelization with   8 CPUs.

           SMP Parallelization Reference:
           C. van Wullen, J. Comput. Chem. 32 (2011) 1195--1201
 operating system is UNIX !

 ridft (c-12-253.gp.local) : TURBOMOLE V7.2 ( 21454 ) 4 Oct 2017 at 12:48:15
 Copyright (C) 2017 TURBOMOLE GmbH, Karlsruhe


    2018-04-28 21:01:16.258 



                                  r i d f t

                        DFT program with RI approximation 
                                for coulomb part 




                                                 
                                 References:     
                                                 
          TURBOMOLE:                             
              R. Ahlrichs, M. Baer, M. Haeser, H. Horn, and
              C. Koelmel
              Electronic structure calculations on workstation
              computers: the program system TURBOMOLE
              Chem. Phys. Lett. 162: 165 (1989)
          Density Functional:                              
              O. Treutler and R. Ahlrichs                      
              Efficient Molecular Numerical Integration Schemes
              J. Chem. Phys. 102: 346 (1995)                   
          Parallel Version:                                
              Performance of parallel TURBOMOLE for Density    
              Functional Calculations                          
              M. v. Arnim and R. Ahlrichs                      
              J. Comp. Chem. 19: 1746 (1998)                   
          RI-J Method:                                     
              Auxiliary Basis Sets to approximate Coulomb      
              Potentials                                       
              Chem. Phys. Lett. 240: 283 (1995)                
              K. Eichkorn, O. Treutler, H. Oehm, M. Haeser     
              and R. Ahlrichs                                  
              Chem. Phys. Lett. 242: 652 (1995)                
                                                           
              Auxiliary Basis Sets for Main Row Atoms and their
              Use to approximate Coulomb Potentials            
              K. Eichkorn, F. Weigend, O. Treutler and         
              R. Ahlrichs                                      
              Theo. Chem. Acc. 97: 119 (1997)                   
                                                           
              Accurate Coulomb-fitting basis sets for H to Rn 
              F. Weigend                                        
              Phys. Chem. Chem. Phys. 8: 1057 (2006)            
                                                           
          Multipole accelerated RI-J (MARI-J):             
              Fast evaluation of the Coulomb potential for     
              electron densities using multipole accelerated   
              resolution of identity approximation             
              M. Sierka, A. Hogekamp and R. Ahlrichs           
              J. Chem. Phys. 118: 9136 (2003)                  
          RI-JK Method:                                     
              A fully direct RI-HF algorithm: Implementation,
              optimised auxiliary basis sets, demonstration of
              accuracy and efficiency                         
              F. Weigend                                      
              Phys. Chem. Chem. Phys. 4: 4285 (2002)           
          Two-component HF and DFT with spin-orbit coupling:  
              Self-consistent treatment of spin-orbit         
              interactions with efficient Hartree-Fock and    
              density functional methods                      
              M. K. Armbruster, F. Weigend, C. van Wüllen and 
              W. Klopper                                      
              Phys. Chem. Chem. Phys. 10: 1748 (2008)         
          Relativistic all-electron 2c calculations           
              An efficient implementation of two-component    
              relativistic exact-decoupling methods for large 
              molecules                                       
              D. Peng, N. Middendorf, F. Weigend, M. Reiher   
              J. Chem. Phys. 138, 184105 (2013)               
                                         




              +--------------------------------------------------+
              |      general information about current run       |
              +--------------------------------------------------+

 

 DENSITY CONVERGENCE CHECK SWITCHED ON !
 SCF CONVERGENCE IF RMS(delta[D]) <     0.1000000000E-06

 TPSS meta-GGA functional
 exchange:    LDA + TPSS
 correlation: LDA (PW) + TPSS
 A DFT calculation using the RI-J approximation will be carried out.
 Allocatable memory for RI due to $ricore (MB):                  5000


              +--------------------------------------------------+
              | Atomic coordinate, charge and isotop information |
              +--------------------------------------------------+

                    atomic coordinates            atom    charge  isotop
          2.97155929    0.48102820   -0.48467944    n      7.000     0
          1.83182474   -1.70672566    0.08414220    c      6.000     0
          3.04933562   -3.34893714    0.19340440    h      1.000     0
         -0.75240979   -1.94418636    0.53093827    c      6.000     0
         -1.54659868   -3.76383766    1.00828915    h      1.000     0
         -2.25974443    0.20136504    0.36924743    c      6.000     0
         -4.27208430    0.09361448    0.70570461    h      1.000     0
         -1.10951167    2.48954862   -0.22696639    c      6.000     0
         -2.19550694    4.21314446   -0.37881936    h      1.000     0
          1.49013850    2.53167682   -0.62784361    c      6.000     0
          2.43478365    4.28739999   -1.09325739    h      1.000     0
 
       center of nuclear mass  :    0.37250694    0.34270147   -0.06060898
       center of nuclear charge:    0.32077687    0.33996791   -0.05191255

              +--------------------------------------------------+
              |               basis set information              |
              +--------------------------------------------------+

              we will work with the 1s 3p 5d 7f 9g ... basis set
              ...i.e. with spherical basis functions...

   type   atoms  prim   cont   basis
   ---------------------------------------------------------------------------
    n        1     50     30   cc-pVTZ   [4s3p2d1f|18s5p2d1f]
    c        5     50     30   cc-pVTZ   [4s3p2d1f|18s5p2d1f]
    h        5     16     14   cc-pVTZ   [3s2p1d|5s2p1d]
   ---------------------------------------------------------------------------
   total:   11    380    250
   ---------------------------------------------------------------------------

   total number of primitive shells          :   60
   total number of contracted shells         :   90
   total number of cartesian basis functions :  285
   total number of SCF-basis functions       :  250


 integral neglect threshold       :  0.12E-12
 integral storage threshold THIZE :  0.10E-04
 integral storage threshold THIME :         5

 RI-J AUXILIARY BASIS SET information:

              we will work with the 1s 3p 5d 7f 9g ... basis set
              ...i.e. with spherical basis functions...

   type   atoms  prim   cont   basis
   ---------------------------------------------------------------------------
    n        1     70     49   cc-pVTZ   [6s4p3d1f1g|12s5p4d2f1g]
    c        5     70     49   cc-pVTZ   [6s4p3d1f1g|12s5p4d2f1g]
    h        5     16     11   cc-pVTZ   [3s1p1d|5s2p1d]
   ---------------------------------------------------------------------------
   total:   11    500    349
   ---------------------------------------------------------------------------

   total number of primitive shells          :   56
   total number of contracted shells         :  115
   total number of cartesian basis functions :  426
   total number of SCF-basis functions       :  349


 symmetry group of the molecule :   c1 

 the group has the following generators :
   c1(z)

    1 symmetry operations found

 there are 1 real representations :   a   

 maximum number of shells which are related by symmetry :  1


    mo occupation :
   irrep   mo's   occupied
    a      250       21
 
 number of basis functions   :                    250
 number of occupied orbitals :                     21
 
  
           ------------------
           density functional
           ------------------
 TPSS meta-GGA functional
 exchange:    LDA + TPSS
 correlation: LDA (PW) + TPSS

 iterations will be done with small grid
  
 spherical integration : Lebedev's spherical grid
 spherical gridsize    :                     5
    i.e. gridpoints    :                   590
 value for diffuse not defined
 radial integration    : Chebyshev 2nd kind (scaling 3)
 radial gridsize       :                     8
 integration cells     :                    11
 partition function    : becke
 partition sharpness   :                     3
  

 biggest AO integral is expected to be     4.229423036
  
           ------------------------
               RI-J - INFORMATION
           ------------------------
 Contributions to RI integral batches: 
  neglected integral batches:                   112
  direct contribution:                            0
  memory contribution:                  3983
 Memory core needed for (P|Q) and Cholesky      1 MByte
 Memory core minimum needed except of (P|Q)     1 MByte
 Total minimum memory core needed (sum)         2 MByte
  
 ****************************************
 Memory allocated for RI-J   131 MByte
 ****************************************
                                            

          ------------------------
          nuclear repulsion energy  :   206.225641840    
          ------------------------


         -----------------
         -S,T+V- integrals
         -----------------

 1e-integrals will be neglected if expon. factor < 0.117262E-13
 Difference densities >>NOT<< switched on in parallel ridft!

 DIIS switched on: error vector is FDS-SDF
 Max. Iterations for DIIS is     :   4
 DIIS matrix (see manual) 
    Scaling factor of diagonals  :  1.200
    threshold for scaling factor :  0.000

 scf convergence criterion : increment of total energy < .1000000D-08
                  and increment of one-electron energy < .1000000D-05

  MOs are in ASCII format !


 automatic virtual orbital shift switched on 
      shift if e(lumo)-e(homo) < 0.10000000    


 reading orbital data $scfmo  from file mos
 orbital characterization : expanded
 mo provided and orthogonalized by Cholesky decomposition

 DSCF restart information will be dumped onto file mos


 Starting SCF iterations

          Overall gridpoints after grid construction =         54830

 ITERATION  ENERGY          1e-ENERGY        2e-ENERGY     RMS[dD(SAO)]   TOL
   1  -247.44872337676    -732.91620955     279.24184433    0.000D+00 0.117D-12
                            Exc = -35.1455269542     Coul =  314.387371285    
                              N = 42.000003381    
                            current damping = 0.700
 
          max. resid. norm for Fia-block=  2.812D-01 for orbital     15a         
          max. resid. fock norm         =  5.293D+00 for orbital    242a         

 ITERATION  ENERGY          1e-ENERGY        2e-ENERGY     RMS[dD(SAO)]   TOL
   2  -248.22302845797    -739.17697400     284.72830370    0.432D-02 0.117D-12
                            Exc = -35.6321707840     Coul =  320.360474481    
                              N = 42.000000475    
                            current damping = 0.650
 
          Norm of current diis error:  2.0433    
          max. resid. norm for Fia-block=  1.353D-01 for orbital      1a         
          max. resid. fock norm         =  2.185D-01 for orbital    248a         

 ITERATION  ENERGY          1e-ENERGY        2e-ENERGY     RMS[dD(SAO)]   TOL
   3  -248.36073207925    -740.85075091     286.26437699    0.225D-02 0.117D-12
                            Exc = -35.8394912018     Coul =  322.103868196    
                              N = 41.999999682    
                            current damping = 0.550
 
          Norm of current diis error:  1.0091    
          max. resid. norm for Fia-block=  5.428D-02 for orbital     21a         
          max. resid. fock norm         =  6.050D-02 for orbital      7a         

 ITERATION  ENERGY          1e-ENERGY        2e-ENERGY     RMS[dD(SAO)]   TOL
   4  -248.40496663348    -741.55478166     286.92417318    0.164D-02 0.117D-12
                            Exc = -35.9095087541     Coul =  322.833681936    
                              N = 41.999998234    
                            current damping = 0.450
 
          Norm of current diis error: 0.39812    
          max. resid. norm for Fia-block=  2.718D-02 for orbital      7a         
          max. resid. fock norm         =  4.416D-02 for orbital    247a         

 ITERATION  ENERGY          1e-ENERGY        2e-ENERGY     RMS[dD(SAO)]   TOL
   5  -248.41081548273    -742.25802080     287.62156348    0.726D-03 0.117D-12
                            Exc = -35.9860827955     Coul =  323.607646272    
                              N = 41.999998268    
                            current damping = 0.350
 
          Norm of current diis error: 0.22571    
          max. resid. norm for Fia-block=  1.340D-02 for orbital     21a         
          max. resid. fock norm         =  1.434D-02 for orbital     21a         
          mo-orthogonalization: Cholesky decomposition

 ITERATION  ENERGY          1e-ENERGY        2e-ENERGY     RMS[dD(SAO)]   TOL
   6  -248.41308976463    -742.14045987     287.50172826    0.619D-03 0.117D-12
                            Exc = -35.9776314070     Coul =  323.479359669    
                              N = 41.999997795    
                            current damping = 0.400
 
          Norm of current diis error: 0.10101    
          max. resid. norm for Fia-block=  3.208D-03 for orbital     19a         
          max. resid. fock norm         =  7.338D-03 for orbital    248a         

 ITERATION  ENERGY          1e-ENERGY        2e-ENERGY     RMS[dD(SAO)]   TOL
   7  -248.41349265871    -742.19100953     287.55187503    0.126D-03 0.117D-12
                            Exc = -35.9833933263     Coul =  323.535268357    
                              N = 41.999997884    
                            current damping = 0.450
 
          Norm of current diis error: 0.31832E-01
          max. resid. norm for Fia-block=  1.466D-03 for orbital     13a         
          max. resid. fock norm         =  2.160D-03 for orbital    248a         

 ITERATION  ENERGY          1e-ENERGY        2e-ENERGY     RMS[dD(SAO)]   TOL
   8  -248.41352718301    -742.22971466     287.59054563    0.408D-04 0.117D-12
                            Exc = -35.9871838383     Coul =  323.577729470    
                              N = 41.999997866    
                            current damping = 0.300
 
          Norm of current diis error: 0.11309E-01
          max. resid. norm for Fia-block=  3.513D-04 for orbital     17a         
          max. resid. fock norm         =  5.598D-04 for orbital    112a         

 ITERATION  ENERGY          1e-ENERGY        2e-ENERGY     RMS[dD(SAO)]   TOL
   9  -248.41353249708    -742.23280665     287.59363231    0.159D-04 0.117D-12
                            Exc = -35.9873336745     Coul =  323.580965983    
                              N = 41.999997864    
                            current damping = 0.150
 
          Norm of current diis error: 0.19125E-02
          max. resid. norm for Fia-block=  1.048D-04 for orbital     20a         
          max. resid. fock norm         =  1.515D-04 for orbital     67a         

 ITERATION  ENERGY          1e-ENERGY        2e-ENERGY     RMS[dD(SAO)]   TOL
  10  -248.41353253972    -742.22501148     287.58583710    0.514D-05 0.117D-12
                            Exc = -35.9868736933     Coul =  323.572710794    
                              N = 41.999997864    
                            current damping = 0.200
 
          Norm of current diis error: 0.16702E-02
          max. resid. norm for Fia-block=  5.601D-05 for orbital     20a         
          max. resid. fock norm         =  7.403D-05 for orbital     11a         
          mo-orthogonalization: Cholesky decomposition

 ITERATION  ENERGY          1e-ENERGY        2e-ENERGY     RMS[dD(SAO)]   TOL
  11  -248.41353263427    -742.22798139     287.58880692    0.224D-05 0.117D-12
                            Exc = -35.9870599097     Coul =  323.575866827    
                              N = 41.999997865    
                            current damping = 0.250
 
          Norm of current diis error: 0.63822E-03
          max. resid. norm for Fia-block=  2.654D-05 for orbital     19a         
          max. resid. fock norm         =  4.235D-05 for orbital    247a         

 ITERATION  ENERGY          1e-ENERGY        2e-ENERGY     RMS[dD(SAO)]   TOL
  12  -248.41353264640    -742.22846015     287.58928566    0.116D-05 0.117D-12
                            Exc = -35.9870774137     Coul =  323.576363079    
                              N = 41.999997863    
                            current damping = 0.100
 
          Norm of current diis error: 0.35296E-03
          max. resid. norm for Fia-block=  1.285D-05 for orbital     19a         
          max. resid. fock norm         =  1.941D-05 for orbital    248a         

 ITERATION  ENERGY          1e-ENERGY        2e-ENERGY     RMS[dD(SAO)]   TOL
  13  -248.41353265089    -742.22872544     287.58955095    0.569D-06 0.117D-12
                            Exc = -35.9871076931     Coul =  323.576658645    
                              N = 41.999997864    
                            current damping = 0.050
 
          Norm of current diis error: 0.13898E-03
          max. resid. norm for Fia-block=  5.673D-06 for orbital     19a         
          max. resid. fock norm         =  7.590D-06 for orbital    247a         

 ITERATION  ENERGY          1e-ENERGY        2e-ENERGY     RMS[dD(SAO)]   TOL
  14  -248.41353265153    -742.22840288     287.58922839    0.271D-06 0.117D-12
                            Exc = -35.9870800538     Coul =  323.576308442    
                              N = 41.999997864    
                            current damping = 0.100
 
          Norm of current diis error: 0.69144E-04
          max. resid. norm for Fia-block=  2.013D-06 for orbital     13a         
          max. resid. fock norm         =  2.711D-06 for orbital    249a         

 DENSITY CONVERGED !


 ITERATION  ENERGY          1e-ENERGY        2e-ENERGY     RMS[dD(SAO)]   TOL
  15  -248.41353265172    -742.22847346     287.58929897    0.863D-07 0.117D-12
                            Exc = -35.9870866181     Coul =  323.576385586    
                              N = 41.999997864    
                            current damping = 0.150
 
          Norm of current diis error: 0.17396E-04
          max. resid. norm for Fia-block=  8.482D-07 for orbital     20a         
          max. resid. fock norm         =  1.156D-06 for orbital    249a         
          mo-orthogonalization: Cholesky decomposition

 DENSITY CONVERGED !


 ITERATION  ENERGY          1e-ENERGY        2e-ENERGY     RMS[dD(SAO)]   TOL
  16  -248.41353265173    -742.22851171     287.58933722    0.290D-07 0.117D-12
                            Exc = -35.9870888161     Coul =  323.576426033    
                              N = 41.999997864    
                            current damping = 0.050
 
          Norm of current diis error: 0.11755E-04
          max. resid. norm for Fia-block=  3.338D-07 for orbital     20a         
          max. resid. fock norm         =  4.953D-07 for orbital     10a         

 ENERGY & DENSITY CONVERGED !

          Overall gridpoints after grid construction =        176175

 ITERATION  ENERGY          1e-ENERGY        2e-ENERGY     RMS[dD(SAO)]   TOL
  17  -248.41339619747    -742.22849541     287.58945737    0.141D-07 0.117D-12
                            Exc = -35.9869515468     Coul =  323.576408918    
                              N = 42.000000358    
                            current damping = 0.100
 
          Norm of current diis error: 0.41346E-05
          max. resid. norm for Fia-block=  1.332D-07 for orbital     20a         
          max. resid. fock norm         =  2.221D-07 for orbital    249a         

 End of SCF iterations

   convergence criteria satisfied after    17 iterations


                  ------------------------------------------ 
                 |  total energy      =   -248.41339619747  |
                  ------------------------------------------ 
                 :  kinetic energy    =    247.03006137657  :
                 :  potential energy  =   -495.44345757404  :
                 :  virial theorem    =      1.99443131956  :
                 :  wavefunction norm =      1.00000000000  :
                  .......................................... 


 <geterg> : there is no data group $energy 


 <skperg> : $end is missing 


 orbitals $scfmo  will be written to file mos

    irrep                 17a         18a         19a         20a         21a   
 eigenvalues H         -0.36386    -0.32693    -0.26517    -0.24268    -0.21919
            eV          -9.9012     -8.8964     -7.2157     -6.6038     -5.9645
 occupation              2.0000      2.0000      2.0000      2.0000      2.0000 

    irrep                 22a         23a         24a         25a         26a   
 eigenvalues H         -0.05857    -0.04449     0.03132     0.05982     0.07272
            eV          -1.5937     -1.2107      0.8523      1.6279      1.9787
 
 
 
 
 ==============================================================================
                           electrostatic moments
 ==============================================================================

 reference point for electrostatic moments:    0.00000   0.00000   0.00000

 
              nuc           elec       ->  total
 ------------------------------------------------------------------------------
                          charge      
 ------------------------------------------------------------------------------
          42.000000     -42.000000      -0.000000
 
 ------------------------------------------------------------------------------
                       dipole moment  
 ------------------------------------------------------------------------------
   x      13.472628     -14.304617      -0.831989
   y      14.278652     -14.322748      -0.044096
   z      -2.180327       2.318866       0.138539
 
   | dipole moment | =     0.8446 a.u. =     2.1467 debye 
 
 ------------------------------------------------------------------------------
                     quadrupole moment
 ------------------------------------------------------------------------------
  xx     177.378751    -204.788425     -27.409674
  yy     179.186084    -201.396679     -22.210595
  zz       9.761308     -37.307316     -27.546007
  xy      -0.245676      -0.451444      -0.697120
  xz     -26.477452      26.494422       0.016971
  yz     -31.828164      30.911797      -0.916366
 
     1/3  trace=     -25.722092
     anisotropy=       5.633454
 
 ==============================================================================
 


    ------------------------------------------------------------------------
         total  cpu-time :  3 minutes and 57 seconds
         total wall-time :  26.11 seconds
    ------------------------------------------------------------------------

   ****  ridft : all done  ****


    2018-04-28 21:01:42.350 

