STARTING dscf ON 64 PROCESSORS!
RUNNING PROGRAM /beegfs/modfac/apps/TURBOMOLE/7.2.1-official/bin/em64t-unknown-linux-gnu_mpi/dscf_mpi.
PLEASE WAIT UNTIL dscf HAS FINISHED.
Look for the output in slave1.output.
MACHINEFILE is ./hostlist
 this is node-proc. number 1 running on node c-5-9.local
 the total number of node-proc. spawned is  65
  parallel platform: MPP or cluster with fast interconnect

   OpenMP run-time library returned nthreads =  8

 dscf (c-5-9.local) : TURBOMOLE V7.2 ( 21471 ) 7 Nov 2017 at 16:15:16
 Copyright (C) 2017 TURBOMOLE GmbH, Karlsruhe


    2018-03-08 22:40:12.840 


 SCF run will be profiled !



                             d s c f - program

                   idea & directorship : reinhart ahlrichs
                   program development : marco haeser
                                         michael baer
                           dft version : oliver treutler
           parallelized version : malte v. arnim, gina corongiu, GMD 


                          quantum chemistry group
                          universitaet  karlsruhe
                                  germany




                          References             
                                                 
          TURBOMOLE:                             
              R. Ahlrichs, M. Baer, M. Haeser, H. Horn, and
              C. Koelmel
              Electronic structure calculations on workstation
              computers: the program system TURBOMOLE
              Chem. Phys. Lett. 162: 165 (1989)
          Density Functional:                              
              O. Treutler and R. Ahlrichs                      
              Efficient Molecular Numerical Integration Schemes
              J. Chem. Phys. 102: 346 (1995)                   
          Parallel Version:                                
              Performance of parallel TURBOMOLE for Density    
              Functional Calculations                          
              M. v. Arnim and R. Ahlrichs                      
              J. Comp. Chem. 19: 1746 (1998)                   
                                         




              +--------------------------------------------------+
              | Atomic coordinate, charge and isotop information |
              +--------------------------------------------------+

                    atomic coordinates            atom    charge  isotop
          3.32504863    3.53778945   -5.88195488    n      7.000     0
          5.31113175    2.71334241   -7.63579180    c      6.000     0
          3.28614670    6.30798210   -5.69960578    c      6.000     0
          0.81458646    2.57125423   -6.60132364    c      6.000     0
          5.41722187    0.65317739   -7.66922896    h      1.000     0
          4.95804471    3.40575991   -9.57173914    h      1.000     0
          7.12955213    3.44209591   -6.98263474    h      1.000     0
          1.87201027    6.87726282   -4.30604713    h      1.000     0
          5.14008849    6.97231737   -5.07616450    h      1.000     0
          2.83153003    7.20013373   -7.52906246    h      1.000     0
          0.48896953   -0.25633627   -6.10784758    c      6.000     0
         -0.57917338    3.61545875   -5.48431276    h      1.000     0
          0.43811970    2.99824916   -8.61368357    h      1.000     0
         -2.05549796   -1.15671996   -7.12882732    c      6.000     0
          2.02220718   -1.31170110   -7.00935219    h      1.000     0
          0.59750572   -0.62164878   -4.07356776    h      1.000     0
         -2.68152854   -3.77552332   -6.43226601    n      7.000     0
         -3.57121007    0.04075393   -6.37395580    h      1.000     0
         -2.09912193   -0.93656318   -9.20897350    h      1.000     0
         -5.25288824   -4.39542434   -7.27486292    c      6.000     0
         -0.86146093   -5.61042528   -7.44374142    c      6.000     0
         -5.73228255   -6.30458081   -6.64998978    h      1.000     0
         -6.58817108   -3.06771482   -6.42407349    h      1.000     0
         -5.43249560   -4.29629915   -9.35048577    h      1.000     0
         -1.46669079   -7.50977586   -6.90544491    h      1.000     0
         -0.73504393   -5.50754310   -9.52417590    h      1.000     0
          1.00652163   -5.27402855   -6.63639349    h      1.000     0
 
       center of nuclear mass  :    0.26916643   -0.00664577   -6.72726059
       center of nuclear charge:    0.27161050   -0.00333441   -6.76947074

              +--------------------------------------------------+
              |               basis set information              |
              +--------------------------------------------------+

              we will work with the 1s 3p 5d 7f 9g ... basis set
              ...i.e. with spherical basis functions...

   type   atoms  prim   cont   basis
   ---------------------------------------------------------------------------
    n        2     77     55   cc-pVQZ   [5s4p3d2f1g|21s6p3d2f1g]
    c        7     77     55   cc-pVQZ   [5s4p3d2f1g|21s6p3d2f1g]
    h       18     32     30   cc-pVQZ   [4s3p2d1f|6s3p2d1f]
   ---------------------------------------------------------------------------
   total:   27   1269   1035
   ---------------------------------------------------------------------------

   total number of primitive shells          :   78
   total number of contracted shells         :  315
   total number of cartesian basis functions : 1260
   total number of SCF-basis functions       : 1035


 integral neglect threshold       :  0.26E-11
 integral storage threshold THIZE :  0.10E-04
 integral storage threshold THIME :         5


 DENSITY CONVERGENCE CHECK SWITCHED ON !
 SCF CONVERGENCE IF RMS(delta[D]) <     0.1000000000E-06


 symmetry group of the molecule :   c1 

 the group has the following generators :
   c1(z)

    1 symmetry operations found

 there are 1 real representations :   a   

 maximum number of shells which are related by symmetry :  1


    mo occupation :
   irrep   mo's   occupied
    a     1035       37
 
 number of basis functions   :                   1035
 number of occupied orbitals :                     37
 

 automatic virtual orbital shift switched on 
      shift if e(lumo)-e(homo) < 0.10000000    


 keyword $2e-ints_shell_statistics missing in file <control>

 ! One task per shell generated
  No pre-computed optimal task distribution found
  ... using automatic task generation

          ------------------------
          nuclear repulsion energy  :   483.427208906    
          ------------------------


         -----------------
         -S,T+V- integrals
         -----------------

 1e-integrals will be neglected if expon. factor < 0.265235E-12
 
   Difference densities algorithm switched on.
   The maximal number of linear combinations of
   difference densities is                    20 .

 DIIS switched on: error vector is FDS-SDF
 Max. Iterations for DIIS is     :   5
 DIIS matrix (see manual) 
    Scaling factor of diagonals  :  1.200
    threshold for scaling factor :  0.000

 scf convergence criterion : increment of total energy < .1000000D-06
                  and increment of one-electron energy < .1000000D-03

  MOs are in ASCII format !


 reading orbital data $scfmo  from file mos
 orbital characterization : expanded
 mo provided and orthogonalized by Cholesky decomposition

 DSCF restart information will be dumped onto file mos

 
                                              current damping :  0.300
 ITERATION  ENERGY          1e-ENERGY        2e-ENERGY     RMS[dD(SAO)]   TOL
   1  -383.11316581362    -1467.7944784     601.25410364    0.000D+00 0.265D-11
          max. resid. norm for Fia-block=  2.806D-01 for orbital      1a         
          max. resid. fock norm         =  7.511D+00 for orbital    968a         
          Delta Eig. =   670.4668958460 eV 
 
                                              current damping :  0.250
 ITERATION  ENERGY          1e-ENERGY        2e-ENERGY     RMS[dD(SAO)]   TOL
   2  -384.38367038612    -1476.6190501     608.80817078    0.265D-02 0.184D-11
          Norm of current diis error:  2.7739    
          max. resid. norm for Fia-block=  1.000D-01 for orbital     11a         
          max. resid. fock norm         =  1.756D-01 for orbital   1012a         
          Delta Eig. =   155.8246570136 eV 
 
                                              current damping :  0.150
 ITERATION  ENERGY          1e-ENERGY        2e-ENERGY     RMS[dD(SAO)]   TOL
   3  -384.54153831085    -1478.2668591     610.29811191    0.924D-03 0.141D-11
          Norm of current diis error: 0.92458    
          max. resid. norm for Fia-block=  4.294D-02 for orbital     37a         
          max. resid. fock norm         =  4.510D-02 for orbital     37a         
          Delta Eig. =    36.5453365230 eV 
 
                                              current damping :  0.100
 ITERATION  ENERGY          1e-ENERGY        2e-ENERGY     RMS[dD(SAO)]   TOL
   4  -384.56832342985    -1478.5532579     610.55772560    0.493D-03 0.118D-11
          Norm of current diis error: 0.25584    
          max. resid. norm for Fia-block=  1.083D-02 for orbital     17a         
          max. resid. fock norm         =  1.707D-02 for orbital    988a         
          Delta Eig. =     3.9014371590 eV 
 
                                              current damping :  0.100
 ITERATION  ENERGY          1e-ENERGY        2e-ENERGY     RMS[dD(SAO)]   TOL
   5  -384.57087804840    -1478.9220996     610.92401265    0.179D-03 0.108D-11
          Norm of current diis error: 0.77485E-01
          max. resid. norm for Fia-block=  6.975D-03 for orbital     36a         
          max. resid. fock norm         =  7.700D-03 for orbital     37a         
 mo-orthogonalization: Cholesky decomposition
          Delta Eig. =     0.7757979060 eV 
 
                                              current damping :  0.150
 ITERATION  ENERGY          1e-ENERGY        2e-ENERGY     RMS[dD(SAO)]   TOL
   6  -384.57120836818    -1478.8004865     610.80206918    0.939D-04 0.101D-11
          Norm of current diis error: 0.31632E-01
          max. resid. norm for Fia-block=  2.203D-03 for orbital     36a         
          max. resid. fock norm         =  2.226D-03 for orbital     36a         
          Delta Eig. =     0.1085710198 eV 
 
                                              current damping :  0.200
 ITERATION  ENERGY          1e-ENERGY        2e-ENERGY     RMS[dD(SAO)]   TOL
   7  -384.57125905380    -1478.8367767     610.83830872    0.338D-04 0.967D-12
          Norm of current diis error: 0.90983E-02
          max. resid. norm for Fia-block=  1.116D-03 for orbital     36a         
          max. resid. fock norm         =  1.142D-03 for orbital     36a         
          Delta Eig. =     0.0088122913 eV 
 
                                              current damping :  0.250
 ITERATION  ENERGY          1e-ENERGY        2e-ENERGY     RMS[dD(SAO)]   TOL
   8  -384.57126560890    -1478.8323026     610.83382812    0.141D-04 0.931D-12
          Norm of current diis error: 0.32698E-02
          max. resid. norm for Fia-block=  4.074D-04 for orbital     36a         
          max. resid. fock norm         =  4.149D-04 for orbital     36a         
          Delta Eig. =     0.0027689333 eV 
 
                                              current damping :  0.300
 ITERATION  ENERGY          1e-ENERGY        2e-ENERGY     RMS[dD(SAO)]   TOL
   9  -384.57126640960    -1478.8325669     610.83409158    0.445D-05 0.899D-12
          Norm of current diis error: 0.11065E-02
          max. resid. norm for Fia-block=  1.394D-04 for orbital     36a         
          max. resid. fock norm         =  1.425D-04 for orbital     36a         
          Delta Eig. =     0.0008842177 eV 
 
                                              current damping :  0.350
 ITERATION  ENERGY          1e-ENERGY        2e-ENERGY     RMS[dD(SAO)]   TOL
  10  -384.57126649890    -1478.8323214     610.83384601    0.129D-05 0.871D-12
          Norm of current diis error: 0.39534E-03
          max. resid. norm for Fia-block=  4.742D-05 for orbital     36a         
          max. resid. fock norm         =  4.829D-05 for orbital     36a         
 mo-orthogonalization: Cholesky decomposition
          Delta Eig. =     0.0003567196 eV 
 
                                              current damping :  0.400
 ITERATION  ENERGY          1e-ENERGY        2e-ENERGY     RMS[dD(SAO)]   TOL
  11  -384.57126650935    -1478.8323772     610.83390180    0.374D-06 0.845D-12
          Norm of current diis error: 0.14059E-03
          max. resid. norm for Fia-block=  1.605D-05 for orbital     36a         
          max. resid. fock norm         =  1.654D-05 for orbital     36a         
          Delta Eig. =     0.0001372696 eV 

 ENERGY & DENSITY CONVERGED !

 
                                              current damping :  0.450
 ITERATION  ENERGY          1e-ENERGY        2e-ENERGY     RMS[dD(SAO)]   TOL
  12  -384.57126651064    -1478.8323317     610.83385624    0.109D-06 0.823D-12
          max. resid. norm for Fia-block=  2.911D-06 for orbital     36a         
          max. resid. fock norm         =  2.994D-06 for orbital     36a         

 convergence criteria satisfied after    12 iterations


                  ------------------------------------------ 
                 |  total energy      =   -384.57126651064  |
                  ------------------------------------------ 
                 :  kinetic energy    =    383.99400494523  :
                 :  potential energy  =   -768.56527145587  :
                 :  virial theorem    =      1.99849894775  :
                 :  wavefunction norm =      1.00000000000  :
                  .......................................... 


 <geterg> : there is no data group $energy 


 <skperg> : $end is missing 


 orbitals $scfmo  will be written to file mos

    irrep                 33a         34a         35a         36a         37a   
 eigenvalues H         -0.48456    -0.46413    -0.46108    -0.35644    -0.34964
            eV         -13.1858    -12.6296    -12.5467     -9.6992     -9.5141
 occupation              2.0000      2.0000      2.0000      2.0000      2.0000 

    irrep                 38a         39a         40a         41a         42a   
 eigenvalues H          0.11023     0.12221     0.13075     0.14493     0.14773
            eV           2.9996      3.3256      3.5578      3.9438      4.0200
 
 
 
 
 ==============================================================================
                           electrostatic moments
 ==============================================================================

 reference point for electrostatic moments:    0.00000   0.00000   0.00000

 
              nuc           elec       ->  total
 ------------------------------------------------------------------------------
                          charge      
 ------------------------------------------------------------------------------
          74.000000     -74.000000       0.000000
 
 ------------------------------------------------------------------------------
                       dipole moment  
 ------------------------------------------------------------------------------
   x      20.099177     -20.154370      -0.055194
   y      -0.246746       0.369650       0.122904
   z    -500.940835     500.439334      -0.501500
 
   | dipole moment | =     0.5193 a.u. =     1.3199 debye 
 
 ------------------------------------------------------------------------------
                     quadrupole moment
 ------------------------------------------------------------------------------
  xx     836.857789    -880.590907     -43.733118
  yy    1202.015558   -1245.002282     -42.986724
  zz    3467.742151   -3508.133756     -40.391604
  xy     759.188832    -759.119102       0.069730
  xz     -94.059345      93.700729      -0.358616
  yz     118.459434    -118.210463       0.248971
 
     1/3  trace=     -42.370482
     anisotropy=       3.132905
 
 ==============================================================================
 

    dscf profiling
  --------------------------------------------------------------------
             module   cpu total (s)       %  wall total (s)       %

          dscf.total           612.3  100.00           295.4  100.00
        dscf.prepare             8.6    1.40             1.7    0.57
      prepare.oneint             0.3    0.06             0.2    0.06
     prepare.moinput             0.4    0.07             0.2    0.07
     moinput_orthmos             7.6    1.24             1.1    0.37
            dscf.scf           603.4   98.55           293.3   99.31
             scf.pre             0.0    0.00             0.0    0.01
        scf.makedmat             8.0    1.31             1.3    0.45
          scf.shloop           463.4   75.68           233.9   79.18
          shloop_omp           462.1   75.47           233.7   79.13
          scf.symcar             2.0    0.32             1.0    0.33
        scf.makefock             6.0    0.98             2.0    0.69
          scf.newerg             0.1    0.02             0.0    0.01
          scf.newcnv            15.2    2.48             2.0    0.68
           scf.fdiag            35.2    5.75             4.4    1.49
         diag_tritrn             8.7    1.42             1.1    0.37
          diag_rdiag            21.2    3.47             2.7    0.90
          scf.modump            58.7    9.58            43.4   14.69
           ortho_all             5.6    0.92             0.9    0.32
            scf.post             7.5    1.23             4.1    1.38
        dscf.postscf             0.3    0.06             0.4    0.12
 


    ------------------------------------------------------------------------
         total  cpu-time : 10 minutes and 14 seconds
         total wall-time :  4 minutes and 56 seconds
    ------------------------------------------------------------------------

   ****  dscf : all done  ****


    2018-03-08 22:45:08.294 

