 this is node-proc. number 0 running on node c-5-9.local
 the total number of node-proc. spawned is  65

 dscfserver (c-5-9.local) : TURBOMOLE V7.2 ( 21471 ) 7 Nov 2017 at 16:15:16
 Copyright (C) 2017 TURBOMOLE GmbH, Karlsruhe


    2018-03-08 22:40:12.410 

 
    0:00:02 ---- Start global counter...
    0:00:29 ---- ... finished.
 
    0:00:34 ---- Start global counter...
    0:01:02 ---- ... finished.
 
    0:01:07 ---- Start global counter...
    0:01:33 ---- ... finished.
 
    0:01:38 ---- Start global counter...
    0:02:04 ---- ... finished.
 
    0:02:09 ---- Start global counter...
    0:02:32 ---- ... finished.
 
    0:02:38 ---- Start global counter...
    0:03:00 ---- ... finished.
 
    0:03:04 ---- Start global counter...
    0:03:24 ---- ... finished.
 
    0:03:29 ---- Start global counter...
    0:03:46 ---- ... finished.
 
    0:03:51 ---- Start global counter...
    0:04:06 ---- ... finished.
 
    0:04:11 ---- Start global counter...
    0:04:23 ---- ... finished.
 
    0:04:28 ---- Start global counter...
    0:04:38 ---- ... finished.
 
    0:04:43 ---- Start global counter...
    0:04:51 ---- ... finished.
 
    0:04:55 ---- ByeBye Tag received


 ! Total wall-clock time in seconds  :      295.3
 ! Time (sec) spent in global counter:      233.1
 ! So-called SERIAL wall-clock time  :       62.1

  *** Regular termination of server ***
 total turnaround time of dscfserver   295.86 sec
 cpu elapsed by dscfserver process      56.50 sec 

   ***  dscf server : all done  ***


    2018-03-08 22:45:08.266 

