
   OpenMP run-time library returned nthreads = 28

 ricc2 (c-19-413) : TURBOMOLE V7.3 ( 22142 ) 4 Jul 2018 at 18:12:42
 Copyright (C) 2018 TURBOMOLE GmbH, Karlsruhe


    2019-03-25 19:54:45.304 



                              R I C C 2 - PROGRAM

                          the quantum chemistry groups
                             at the universities in
                           Karlsruhe, Bochum & Mainz
                                   Germany



   *-----------------------------------------------------------------------*
   |                     program will use 28 thread(s)                     |
   *-----------------------------------------------------------------------*


              +--------------------------------------------------+
              | Atomic coordinate, charge and isotop information |
              +--------------------------------------------------+

                    atomic coordinates            atom    charge  isotop
          9.39004915    8.90249981   -3.87960775    c      6.000     0
          8.09936621    6.31924419   -4.11393379    c      6.000     0
          5.21753385    6.43829693   -3.83236460    c      6.000     0
          3.94574817    3.84748241   -4.06669064    c      6.000     0
         12.27188151    8.77210871   -4.13661050    c      6.000     0
         13.57012336   11.35158488   -3.88716666    c      6.000     0
         16.45384544   11.20985542   -4.11393379    c      6.000     0
         17.75964620   13.78177269   -3.84748241    c      6.000     0
         20.64525800   13.62870487   -4.05724201    c      6.000     0
         21.95861766   16.19684268   -3.78512144    c      6.000     0
         24.84422947   16.03243651   -3.99677077    c      6.000     0
         26.16892749   18.59679487   -3.73409884    c      6.000     0
         29.05075984   18.42294007   -3.96464543    c      6.000     0
         30.38301676   20.98540871   -3.72276048    c      6.000     0
         33.26295939   20.80966418   -3.98732214    c      6.000     0
         34.59710604   23.37213281   -3.77000364    c      6.000     0
         37.47515894   23.20205746   -4.06480091    c      6.000     0
         38.79040833   25.77397473   -3.86637967    c      6.000     0
         40.84265091   25.58878157   -4.06480091    h      1.000     0
         38.12144528   27.06276795   -5.34414550    h      1.000     0
         37.91924458   22.33845262   -5.89972499    h      1.000     0
         38.23104939   21.92271287   -2.61727069    h      1.000     0
         34.14735122   24.23006848   -1.93318983    h      1.000     0
         33.83932586   24.65903631   -5.21564413    h      1.000     0
         33.72783202   19.95172851   -5.82035649    h      1.000     0
         34.00751149   19.52465040   -2.53601247    h      1.000     0
         29.91247496   21.83389574   -1.88783641    h      1.000     0
         29.64413385   22.27609165   -5.17218043    h      1.000     0
         29.53641946   17.57256331   -5.79767978    h      1.000     0
         29.78019413   17.13225712   -2.51144603    h      1.000     0
         25.67759869   19.43961273   -1.90106449    h      1.000     0
         25.44516238   19.89125727   -5.18729823    h      1.000     0
         25.34500689   15.19150838   -5.82791539    h      1.000     0
         25.56232540   14.73797411   -2.54168165    h      1.000     0
         21.45217106   17.03777081   -1.95586655    h      1.000     0
         21.24052173   17.49130509   -5.24210029    h      1.000     0
         21.15359433   12.79344592   -5.89027636    h      1.000     0
         21.36713338   12.33424247   -2.60404261    h      1.000     0
         17.24942014   14.62270082   -2.02011724    h      1.000     0
         17.03588109   15.07245564   -5.30635098    h      1.000     0
         16.95462286   10.37459647   -5.95074759    h      1.000     0
         17.18894890    9.91728275   -2.66451385    h      1.000     0
         13.06934594   12.19440274   -2.05791176    h      1.000     0
         12.82935072   12.63281920   -5.34414550    h      1.000     0
         12.75754112    7.93684976   -5.97531403    h      1.000     0
         13.02777196    7.48520521   -2.69285974    h      1.000     0
          8.90438954    9.74531767   -2.04468368    h      1.000     0
          8.57179774    5.48209551   -5.95641677    h      1.000     0
          8.87037447    5.03612014   -2.67585220    h      1.000     0
          4.75077150    7.27544561   -1.99177134    h      1.000     0
          4.44652559    7.72142098   -5.27044618    h      1.000     0
          1.89539531    3.99110159   -3.82858515    h      1.000     0
          4.31424476    3.00844400   -5.92618115    h      1.000     0
          4.66384410    2.53979192   -2.63238850    h      1.000     0
          8.63037925   10.17995468   -5.33091742    h      1.000     0
         38.40679392   26.66214601   -2.03334532    h      1.000     0
 
       center of nuclear mass  :   21.32731007   14.86855541   -3.93534284
       center of nuclear charge:   21.32759151   14.86815812   -3.93571708

              +--------------------------------------------------+
              |               basis set information              |
              +--------------------------------------------------+

              we will work with the 1s 3p 5d 7f 9g ... basis set
              ...i.e. with spherical basis functions...

   type   atoms  prim   cont   basis
   ---------------------------------------------------------------------------
    c       18     50     30   cc-pVTZ   [4s3p2d1f|18s5p2d1f]
    h       38     16     14   cc-pVTZ   [3s2p1d|5s2p1d]
   ---------------------------------------------------------------------------
   total:   56   1508   1072
   ---------------------------------------------------------------------------

   total number of primitive shells          :   34
   total number of contracted shells         :  408
   total number of cartesian basis functions : 1200
   total number of SCF-basis functions       : 1072


 symmetry group of the molecule :   c1 

 the group has the following generators :
   c1(z)

    1 symmetry operations found

 there are 1 real representations :   a   


   =========================================================================


     restricted closed shell calculation for the wavefunction models:
               MP2        - Second Order Moeller Plesset PT


     global parameters for ricc2 program:

        hard restart (reuse of interm.) :  disabled
        soft restart (reuse of vectors) :  disabled
        threshold for vector function   :    0.100000E-05
        convergence threshold energy    :    0.100000E-06
        linear dependence threshold     :    0.100000E-13
        global print level              :      1
        maximum number of iterations    :   300
        maximum number DIIS vectors     :    10
        max. dim. of reduced space      :   100
        core memory limit (MB)          : 20000


     MP2 energy only: Energy will be calculated directly from T2 amplitudes!

     Scratch Directory : 


   =========================================================================

    der. integral neglect threshold  :  0.10E-07
    integral neglect threshold       :  0.28E-11
    integral storage threshold THIZE :  0.10E-04
    integral storage threshold THIME :         5


                  +------------------------------------------+
                  |     Auxiliary basis set information      |
                  +------------------------------------------+

              we will work with the 1s 3p 5d 7f 9g ... basis set
              ...i.e. with spherical basis functions...

   type   atoms  prim   cont   basis
   ---------------------------------------------------------------------------
    c       18     81     81   cc-pVTZ   [8s6p5d3f1g|8s6p5d3f1g]
    h       38     30     30   cc-pVTZ   [4s3p2d1f|4s3p2d1f]
   ---------------------------------------------------------------------------
   total:   56   2598   2598
   ---------------------------------------------------------------------------

   total number of primitive shells          :   33
   total number of contracted shells         :  794
   total number of cartesian basis functions : 3148
   total number of SCF-basis functions       : 2598


 maximum number of shells which are related by symmetry :  1


 The symmetry information takes   1 MB

*---------------------------------------------------------------------*
|               simplified C1 algorithm will be applied               |
*---------------------------------------------------------------------*
  MOs are in ASCII format !


 reading orbital data $scfmo  from file mos
 orbital characterization : scfconv=9



              +--------------------------------------------+
              | list of orbitals that will be kept frozen: |
              +--------------------------------------------+
              |   irrep   index      energy     occ/vir    |
              +--------------------------------------------+
              |   a         1      -11.2157     occupied   |
              |   a         2      -11.2157     occupied   |
              |   a         3      -11.2136     occupied   |
              |   a         4      -11.2136     occupied   |
              |   a         5      -11.2133     occupied   |
              |   a         6      -11.2133     occupied   |
              |   a         7      -11.2132     occupied   |
              |   a         8      -11.2131     occupied   |
              |   a         9      -11.2130     occupied   |
              |   a        10      -11.2128     occupied   |
              |   a        11      -11.2127     occupied   |
              |   a       ...        ...        occupied   |
              |   a        18      -11.2100     occupied   |
              +--------------------------------------------+



   Molecular Orbital Statistic:
   ============================

   -----------------------------
   orbitals in total:
   -----------------------------
    frozen occupied :     18
    active occupied :     55
    active virtual  :    999
    frozen virtual  :      0
    all together    :   1072
   -----------------------------


     time in riccmos       cpu:  9.71 sec    wall:  0.73 sec    ratio: 13.3

     total memory allocated for calculation of (Q|P)**(-1/2) : 78 MiB


     calculation of (P|Q) ...
     time in lp2sym        cpu:  5.73 sec    wall:  0.20 sec    ratio: 28.1


     calculation of the Cholesky decomposition of (P|Q)**(-1) ...
     time in invmetri      cpu: 11.44 sec    wall:  0.48 sec    ratio: 23.8

   threshold for RMS(d[D]) in SCF was     :  0.10E-06
   integral neglect threshold             :  0.28E-11
   derivative integral neglect threshold  :  0.10E-07


   =========================================================================

     Energy of reference wave function is  -704.0212094569000
     Maximum orbital residual is           0.2535094634053E-07


     Number of symmetry-nonredundant auxiliary basis functions:     2598

     Block lengths for integral files:
        frozen occupied (BOI):        1 MiB
        active occupied (BJI):        2 MiB
        active virtual  (BAI):       20 MiB
        frozen virtual  (BGI):        0 MiB
               general  (BTI):       22 MiB

   =========================================================================




   **************************************************************************
   *                                                                        *
   *          OPTIMIZATION OF THE GROUND STATE CLUSTER AMPLITUDES           *
   *                                                                        *
   **************************************************************************


   Iter.   MP2 energy       Norm(Omega)   Norm(t1)  Norm(t2)     cpu    wall
   ...........................................................................
    1   -707.1803918277     ------          0.00000   0.60960    5.71    0.22
   ...........................................................................


     time in total         cpu:  5 min 43 s  wall:  0 min 13 s  ratio: 25.8


     **********************************************************************
     *                                                                    *
     *   RHF  energy                             :   -704.0212094569      *
     *   MP2 correlation energy (doubles)        :     -3.1591823708      *
     *                                                                    *
     *   Final MP2 energy                        :   -707.1803918277      *
     *                                                                    *
     *    E(S)   =     -2.1032319802      E(T)   =     -1.0559503906      *
     *    E(OS)  =     -2.4552154437      E(SS)  =     -0.7039669271      *
     *                                                                    *
     *   SCS-MP2 energy                          :   -707.2021236317      *
     *   (computed with  C(OS) =   1.2000  and  C(SS) =   0.3333)         *
     *                                                                    *
     *   SOS-MP2 energy                          :   -707.2129895337      *
     *   (computed with  C(OS) =   1.3000)                                *
     *                                                                    *
     *   Norm of MP1 T2 amplitudes               :      0.6096042294      *
     *                                                                    *
     **********************************************************************



    ------------------------------------------------------------------------
         total  cpu-time : 12 minutes and 23 seconds
         total wall-time :  30.15 seconds
    ------------------------------------------------------------------------

   ****  ricc2 : all done  ****


    2019-03-25 19:55:15.439 

