STARTING ridft ON 32 PROCESSORS!
RUNNING PROGRAM /sopt/TURBOMOLE/7.3-official/bin/em64t-unknown-linux-gnu_smp/ridft_mpi.
           SMPCPUS    set: Shared-memory Parallelization with  32 CPUs.

           SMP Parallelization Reference:
           C. van Wullen, J. Comput. Chem. 32 (2011) 1195--1201
 operating system is UNIX !

 ridft (c-16-18) : TURBOMOLE V7.3 ( 22118 ) 1 Jul 2018 at 20:38:15
 Copyright (C) 2018 TURBOMOLE GmbH, Karlsruhe


    2019-03-12 22:39:42.174 



                                  r i d f t

                        DFT program with RI approximation 
                                for coulomb part 




                                                 
                                 References:     
                                                 
          TURBOMOLE:                             
              R. Ahlrichs, M. Baer, M. Haeser, H. Horn, and
              C. Koelmel
              Electronic structure calculations on workstation
              computers: the program system TURBOMOLE
              Chem. Phys. Lett. 162: 165 (1989)
          Density Functional:                              
              O. Treutler and R. Ahlrichs                      
              Efficient Molecular Numerical Integration Schemes
              J. Chem. Phys. 102: 346 (1995)                   
          Parallel Version:                                
              Performance of parallel TURBOMOLE for Density    
              Functional Calculations                          
              M. v. Arnim and R. Ahlrichs                      
              J. Comp. Chem. 19: 1746 (1998)                   
          RI-J Method:                                     
              Auxiliary Basis Sets to approximate Coulomb      
              Potentials                                       
              Chem. Phys. Lett. 240: 283 (1995)                
              K. Eichkorn, O. Treutler, H. Oehm, M. Haeser     
              and R. Ahlrichs                                  
              Chem. Phys. Lett. 242: 652 (1995)                
                                                           
              Auxiliary Basis Sets for Main Row Atoms and their
              Use to approximate Coulomb Potentials            
              K. Eichkorn, F. Weigend, O. Treutler and         
              R. Ahlrichs                                      
              Theo. Chem. Acc. 97: 119 (1997)                   
                                                           
              Accurate Coulomb-fitting basis sets for H to Rn 
              F. Weigend                                        
              Phys. Chem. Chem. Phys. 8: 1057 (2006)            
                                                           
          Multipole accelerated RI-J (MARI-J):             
              Fast evaluation of the Coulomb potential for     
              electron densities using multipole accelerated   
              resolution of identity approximation             
              M. Sierka, A. Hogekamp and R. Ahlrichs           
              J. Chem. Phys. 118: 9136 (2003)                  
          RI-JK Method:                                     
              A fully direct RI-HF algorithm: Implementation,
              optimised auxiliary basis sets, demonstration of
              accuracy and efficiency                         
              F. Weigend                                      
              Phys. Chem. Chem. Phys. 4: 4285 (2002)           
          Two-component HF and DFT with spin-orbit coupling:  
              Self-consistent treatment of spin-orbit         
              interactions with efficient Hartree-Fock and    
              density functional methods                      
              M. K. Armbruster, F. Weigend, C. van Wüllen and 
              W. Klopper                                      
              Phys. Chem. Chem. Phys. 10: 1748 (2008)         
          Two-component difference density and DIIS algorithm 
              Efficient two-component self-consistent field   
              procedures and gradients: implementation in     
              TURBOMOLE and application to Au20-              
              A. Baldes, F. Weigend                           
              Mol. Phys. 111: 2617 (2013)                     
          Relativistic all-electron 2c calculations           
              An efficient implementation of two-component    
              relativistic exact-decoupling methods for large 
              molecules                                       
              D. Peng, N. Middendorf, F. Weigend, M. Reiher   
              J. Chem. Phys. 138: 184105 (2013)               
          Finite nucleus model and SNSO approximation         
              Efficient implementation of one- and two-       
              component analytical energy gradients in exact  
              two-component theory                            
              Y. J. Franzke, N. Middendorf, F. Weigend        
              J. Chem. Phys. 148: 104110 (2018)               
                                         




              +--------------------------------------------------+
              |      general information about current run       |
              +--------------------------------------------------+

 
 PBE functional
 exchange:    LDA + PBE
 correlation: LDA (PW) + PBE
 A DFT calculation using the RI-J approximation will be carried out.
 Allocatable memory for RI due to $ricore (MB):                  8000


              +--------------------------------------------------+
              | Atomic coordinate, charge and isotop information |
              +--------------------------------------------------+

                    atomic coordinates            atom    charge  isotop
          1.80824149   -1.68534400    2.15797277    c      6.000     0
          2.84321763   -2.41574581    0.53558654    h      1.000     0
          2.68602738   -2.48457022    3.83808188    h      1.000     0
          1.87262303    1.24440034    2.16468855    c      6.000     0
          2.85460982    1.93337212    0.49123031    h      1.000     0
          2.86531280    2.00276602    3.79936436    h      1.000     0
         -0.90603286    2.08308063    2.08602919    c      6.000     0
         -1.16457890    3.90205244    1.15947429    h      1.000     0
         -1.65302325    2.24701938    4.00257146    h      1.000     0
         -2.23385755   -0.09977103    0.74331575    c      6.000     0
         -1.79312741   -0.05070192   -1.27330615    h      1.000     0
         -4.28148546   -0.06342816    0.94727063    h      1.000     0
         -1.00280127   -2.40919208    1.96401050    c      6.000     0
         -1.30464918   -4.15176786    0.91272301    h      1.000     0
         -1.79684494   -2.67474099    3.84889559    h      1.000     0
         -2.13914195   -0.72550093    9.55439157    c      6.000     0
         -2.76867492   -0.27820537    7.64088444    h      1.000     0
         -3.65997162   -1.75180829   10.48600105    h      1.000     0
          0.34321449   -2.22886294    9.46413599    c      6.000     0
          0.43759675   -3.47181649    7.82738027    h      1.000     0
          0.49493610   -3.42195596   11.13538199    h      1.000     0
          2.47731098   -0.22063997    9.46526244    c      6.000     0
          3.65133160   -0.33530638    7.77986556    h      1.000     0
          3.71963487   -0.50387787   11.08174395    h      1.000     0
          1.13527780    2.35254105    9.66910122    c      6.000     0
          0.79538566    3.12447865    7.78693564    h      1.000     0
          2.23204453    3.74036254   10.71973843    h      1.000     0
         -1.40083381    1.72047974   10.89706767    c      6.000     0
         -2.79860482    3.21810994   10.69887074    h      1.000     0
         -1.13619669    1.35833253   12.91255311    h      1.000     0
 
       center of nuclear mass  :   -0.00233685    0.00211440    5.81659250
       center of nuclear charge:   -0.00066322    0.00137141    5.81658876

              +--------------------------------------------------+
              |               basis set information              |
              +--------------------------------------------------+

              we will work with the 1s 3p 5d 7f 9g ... basis set
              ...i.e. with spherical basis functions...

   type   atoms  prim   cont   basis
   ---------------------------------------------------------------------------
    c       10     68     48   def2-QZVP   [7s4p3d2f|15s8p3d2f]
    h       20     26     23   def2-QZVP   [4s3p2d|7s3p2d]
   ---------------------------------------------------------------------------
   total:   30   1200    940
   ---------------------------------------------------------------------------

   total number of primitive shells          :   40
   total number of contracted shells         :  340
   total number of cartesian basis functions : 1070
   total number of SCF-basis functions       :  940


 integral neglect threshold       :  0.31E-11
 integral storage threshold THIZE :  0.10E-04
 integral storage threshold THIME :         5

 RI-J AUXILIARY BASIS SET information:

              we will work with the 1s 3p 5d 7f 9g ... basis set
              ...i.e. with spherical basis functions...

   type   atoms  prim   cont   basis
   ---------------------------------------------------------------------------
    c       10     70     49   def2-QZVP   [6s4p3d1f1g|12s5p4d2f1g]
    h       20     16     11   def2-QZVP   [3s1p1d|5s2p1d]
   ---------------------------------------------------------------------------
   total:   30   1020    710
   ---------------------------------------------------------------------------

   total number of primitive shells          :   32
   total number of contracted shells         :  250
   total number of cartesian basis functions :  850
   total number of SCF-basis functions       :  710


 symmetry group of the molecule :   c1 

 the group has the following generators :
   c1(z)

    1 symmetry operations found

 there are 1 real representations :   a   

 maximum number of shells which are related by symmetry :  1


    mo occupation :
   irrep   mo's   occupied
    a      940       40
 
 number of basis functions   :                    940
 number of occupied orbitals :                     40
 
  
           ------------------
           density functional
           ------------------
 PBE functional
 exchange:    LDA + PBE
 correlation: LDA (PW) + PBE

 iterations will be done with small grid
  
 spherical integration : Lebedev's spherical grid
 spherical gridsize    :                     4
    i.e. gridpoints    :                   434
 value for diffuse not defined
 radial integration    : Chebyshev 2nd kind (scaling 3)
 radial gridsize       :                     6
 integration cells     :                    30
 partition function    : becke
 partition sharpness   :                     3
  

 biggest AO integral is expected to be     5.262544080
  
           ------------------------
               RI-J - INFORMATION
           ------------------------
 Contributions to RI integral batches: 
  neglected integral batches:                 14318
  direct contribution:                            0
  memory contribution:                 43652
 Memory core needed for (P|Q) and Cholesky      4 MByte
 Memory core minimum needed except of (P|Q)     4 MByte
 Total minimum memory core needed (sum)         8 MByte
  
 ****************************************
 Memory allocated for RI-J  2787 MByte
 ****************************************
                                            

          ------------------------
          nuclear repulsion energy  :   562.364946947    
          ------------------------

  _________________________________
 |                                 |
 |         DFTD3 V3.1 Rev 0        |
 | S.Grimme, University Bonn       |
 |            June  2014           |
 |   see standalone version        |
 |       dftd3 -h for options      |
 |_________________________________|
 
 Please cite DFT-D3 work done with this code as:
 S. Grimme, J. Antony, S. Ehrlich and H. Krieg,
 J. Chem. Phys, 132 (2010), 154104.
 If used with BJ-damping cite also
 S. Grimme, S. Ehrlich and L. Goerigk,
 J. Comput. Chem. 32 (2011), 1456-1465
 For DFT-D2 the reference is
 S. Grimme, J. Comput. Chem., 27 (2006), 1787-1799
 
C6 coefficients used:
                     2  C6 for element                      1
Z=  1 CN= 0.912     C6(AA)=    3.03
Z=  1 CN= 0.000     C6(AA)=    7.59
                     5  C6 for element                      6
Z=  6 CN= 0.000     C6(AA)=   49.11
Z=  6 CN= 0.987     C6(AA)=   43.25
Z=  6 CN= 1.998     C6(AA)=   29.36
Z=  6 CN= 2.999     C6(AA)=   25.78
Z=  6 CN= 3.984     C6(AA)=   18.21

#           XYZ [au]              R0(AA) [Ang.]  CN          C6(AA)     C8(AA)   C10(AA) [au]
  1   1.80824  -1.68534   2.15797   c   0.610  4.094        18.3       528.2     18714.7
  2   2.84322  -2.41575   0.53559   h   0.395  1.002         3.1        37.3       553.1
  3   2.68603  -2.48457   3.83808   h   0.395  1.001         3.1        37.4       553.1
  4   1.87262   1.24440   2.16469   c   0.610  4.096        18.3       528.2     18713.7
  5   2.85461   1.93337   0.49123   h   0.395  1.002         3.1        37.3       553.1
  6   2.86531   2.00277   3.79936   h   0.395  1.001         3.1        37.4       553.1
  7  -0.90603   2.08308   2.08603   c   0.610  4.110        18.3       528.0     18707.7
  8  -1.16458   3.90205   1.15947   h   0.395  1.001         3.1        37.4       553.2
  9  -1.65302   2.24702   4.00257   h   0.395  1.003         3.1        37.3       553.0
 10  -2.23386  -0.09977   0.74332   c   0.610  4.111        18.3       528.0     18707.0
 11  -1.79313  -0.05070  -1.27331   h   0.395  1.003         3.1        37.3       553.0
 12  -4.28149  -0.06343   0.94727   h   0.395  1.001         3.1        37.4       553.2
 13  -1.00280  -2.40919   1.96401   c   0.610  4.108        18.3       528.1     18708.4
 14  -1.30465  -4.15177   0.91272   h   0.395  1.001         3.1        37.4       553.2
 15  -1.79684  -2.67474   3.84890   h   0.395  1.003         3.1        37.3       553.0
 16  -2.13914  -0.72550   9.55439   c   0.610  4.110        18.3       528.0     18707.7
 17  -2.76867  -0.27821   7.64088   h   0.395  1.003         3.1        37.3       553.0
 18  -3.65997  -1.75181  10.48600   h   0.395  1.001         3.1        37.4       553.2
 19   0.34321  -2.22886   9.46414   c   0.610  4.096        18.3       528.2     18713.7
 20   0.43760  -3.47182   7.82738   h   0.395  1.001         3.1        37.4       553.1
 21   0.49494  -3.42196  11.13538   h   0.395  1.002         3.1        37.3       553.1
 22   2.47731  -0.22064   9.46526   c   0.610  4.094        18.3       528.2     18714.7
 23   3.65133  -0.33531   7.77987   h   0.395  1.001         3.1        37.4       553.1
 24   3.71963  -0.50388  11.08174   h   0.395  1.002         3.1        37.3       553.1
 25   1.13528   2.35254   9.66910   c   0.610  4.108        18.3       528.1     18708.4
 26   0.79539   3.12448   7.78694   h   0.395  1.003         3.1        37.3       553.0
 27   2.23204   3.74036  10.71974   h   0.395  1.001         3.1        37.4       553.2
 28  -1.40083   1.72048  10.89707   c   0.610  4.111        18.3       528.0     18707.1
 29  -2.79860   3.21811  10.69887   h   0.395  1.001         3.1        37.4       553.2
 30  -1.13620   1.35833  12.91255   h   0.395  1.003         3.1        37.3       553.0

molecular C6(AA) [au] =      6042.08

           DFT-D V3(BJ)
 DF pbe                                               
 parameters
 s6       :    1.0000
 s8       :    0.7875
 a1       :    0.4289
 a2       :    4.4407
 k1-k3    :   16.0000    1.3333   -4.0000
 
 Edisp /kcal,au:   -18.0586 -0.02877820

 E6    /kcal :   -13.1703
 E8    /kcal :    -4.8882
 % E8        : 27.07
 nuclear repulsion energy                  =     562.364946947
 empirical dispersive energy correction    =      -0.028778198
 nuclear repulsion + dispersion correction =     562.336168749


         -----------------
         -S,T+V- integrals
         -----------------

 1e-integrals will be neglected if expon. factor < 0.312333E-12
 Difference densities >>NOT<< switched on in parallel ridft!

 DIIS switched on: error vector is FDS-SDF
 Max. Iterations for DIIS is     :   4
 DIIS matrix (see manual) 
    Scaling factor of diagonals  :  1.200
    threshold for scaling factor :  0.000

 scf convergence criterion : increment of total energy < .1000000D-06
                  and increment of one-electron energy < .1000000D-03

  MOs are in ASCII format !


 automatic virtual orbital shift switched on 
      shift if e(lumo)-e(homo) < 0.10000000    


 reading orbital data $scfmo  from file mos
 orbital characterization : expanded
 mo provided and orthogonalized by Cholesky decomposition

 DSCF restart information will be dumped onto file mos


 Starting SCF iterations

          Overall gridpoints after grid construction =         69273

 ITERATION  ENERGY          1e-ENERGY        2e-ENERGY     NORM[dD(SAO)]  TOL
   1  -391.44565668657    -1626.1869798     672.40515437    0.000D+00 0.312D-11
                            Exc = -59.4160942757     Coul =  731.821248644    
                              N = 79.999957261    
                            current damping = 0.700
 
          max. resid. norm for Fia-block=  4.516D-01 for orbital     12a         
          max. resid. fock norm         =  4.447D+01 for orbital    797a         

 ITERATION  ENERGY          1e-ENERGY        2e-ENERGY     NORM[dD(SAO)]  TOL
   2  -392.46962159622    -1638.2864420     683.48065164    0.000D+00 0.312D-11
                            Exc = -60.5989969953     Coul =  744.079648635    
                              N = 79.999987466    
                            current damping = 0.650
 
          Norm of current diis error:  3.5639    
          max. resid. norm for Fia-block=  1.047D-01 for orbital      9a         
          max. resid. fock norm         =  1.215D-01 for orbital     11a         

 ITERATION  ENERGY          1e-ENERGY        2e-ENERGY     NORM[dD(SAO)]  TOL
   3  -392.66805920516    -1639.9336040     684.92937609    0.000D+00 0.312D-11
                            Exc = -60.9174626302     Coul =  745.846838722    
                              N = 80.000048872    
                            current damping = 0.550
 
          Norm of current diis error:  1.7754    
          max. resid. norm for Fia-block=  4.693D-02 for orbital     11a         
          max. resid. fock norm         =  5.453D-02 for orbital     11a         

 ITERATION  ENERGY          1e-ENERGY        2e-ENERGY     NORM[dD(SAO)]  TOL
   4  -392.72879288615    -1642.8222731     687.75731147    0.000D+00 0.312D-11
                            Exc = -61.2044247948     Coul =  748.961736261    
                              N = 80.000082600    
                            current damping = 0.450
 
          Norm of current diis error: 0.62658    
          max. resid. norm for Fia-block=  1.815D-02 for orbital     11a         
          max. resid. fock norm         =  2.089D-02 for orbital     11a         

 ITERATION  ENERGY          1e-ENERGY        2e-ENERGY     NORM[dD(SAO)]  TOL
   5  -392.73756578321    -1642.7149625     687.64122798    0.000D+00 0.312D-11
                            Exc = -61.2563354069     Coul =  748.897563384    
                              N = 80.000107531    
                            current damping = 0.500
 
          Norm of current diis error: 0.27523    
          max. resid. norm for Fia-block=  6.754D-03 for orbital     21a         
          max. resid. fock norm         =  7.036D-03 for orbital     11a         
          mo-orthogonalization: Cholesky decomposition

 ITERATION  ENERGY          1e-ENERGY        2e-ENERGY     NORM[dD(SAO)]  TOL
   6  -392.73914644657    -1643.4513411     688.37602588    0.000D+00 0.312D-11
                            Exc = -61.3143601457     Coul =  749.690386029    
                              N = 80.000110857    
                            current damping = 0.550
 
          Norm of current diis error: 0.77859E-01
          max. resid. norm for Fia-block=  2.073D-03 for orbital     11a         
          max. resid. fock norm         =  2.615D-03 for orbital    101a         

 ITERATION  ENERGY          1e-ENERGY        2e-ENERGY     NORM[dD(SAO)]  TOL
   7  -392.73928612821    -1643.3300753     688.25462042    0.000D+00 0.312D-11
                            Exc = -61.3128571921     Coul =  749.567477613    
                              N = 80.000113863    
                            current damping = 0.600
 
          Norm of current diis error: 0.26992E-01
          max. resid. norm for Fia-block=  6.879D-04 for orbital     11a         
          max. resid. fock norm         =  7.769D-04 for orbital     11a         

 ITERATION  ENERGY          1e-ENERGY        2e-ENERGY     NORM[dD(SAO)]  TOL
   8  -392.73930354945    -1643.3678903     688.29241803    0.000D+00 0.312D-11
                            Exc = -61.3169047107     Coul =  749.609322736    
                              N = 80.000114428    
                            current damping = 0.650
 
          Norm of current diis error: 0.94527E-02
          max. resid. norm for Fia-block=  2.639D-04 for orbital     11a         
          max. resid. fock norm         =  3.063D-04 for orbital     11a         

 ITERATION  ENERGY          1e-ENERGY        2e-ENERGY     NORM[dD(SAO)]  TOL
   9  -392.73930572275    -1643.3751773     688.29970282    0.000D+00 0.312D-11
                            Exc = -61.3180300171     Coul =  749.617732833    
                              N = 80.000114750    
                            current damping = 0.500
 
          Norm of current diis error: 0.38213E-02
          max. resid. norm for Fia-block=  1.062D-04 for orbital     11a         
          max. resid. fock norm         =  1.492D-04 for orbital    937a         

 ITERATION  ENERGY          1e-ENERGY        2e-ENERGY     NORM[dD(SAO)]  TOL
  10  -392.73930607674    -1643.3786952     688.30322034    0.000D+00 0.312D-11
                            Exc = -61.3184678123     Coul =  749.621688157    
                              N = 80.000114803    
                            current damping = 0.350
 
          Norm of current diis error: 0.15445E-02
          max. resid. norm for Fia-block=  3.643D-05 for orbital     11a         
          max. resid. fock norm         =  7.883D-05 for orbital    937a         
          mo-orthogonalization: Cholesky decomposition

 ITERATION  ENERGY          1e-ENERGY        2e-ENERGY     NORM[dD(SAO)]  TOL
  11  -392.73930612852    -1643.3776305     688.30215567    0.000D+00 0.312D-11
                            Exc = -61.3185317696     Coul =  749.620687436    
                              N = 80.000114880    
                            current damping = 0.400
 
          Norm of current diis error: 0.67050E-03
          max. resid. norm for Fia-block=  1.423D-05 for orbital     21a         
          max. resid. fock norm         =  1.810D-05 for orbital    937a         

 ITERATION  ENERGY          1e-ENERGY        2e-ENERGY     NORM[dD(SAO)]  TOL
  12  -392.73930613651    -1643.3796544     688.30417948    0.000D+00 0.312D-11
                            Exc = -61.3186680876     Coul =  749.622847569    
                              N = 80.000114878    
                            current damping = 0.450
 
          Norm of current diis error: 0.22074E-03
          max. resid. norm for Fia-block=  4.668D-06 for orbital     29a         
          max. resid. fock norm         =  6.832D-06 for orbital     99a         

 ITERATION  ENERGY          1e-ENERGY        2e-ENERGY     NORM[dD(SAO)]  TOL
  13  -392.73930613741    -1643.3790505     688.30357560    0.000D+00 0.312D-11
                            Exc = -61.3186362692     Coul =  749.622211873    
                              N = 80.000114880    
                            current damping = 0.500
 
          Norm of current diis error: 0.47024E-04
          max. resid. norm for Fia-block=  9.843D-07 for orbital     17a         
          max. resid. fock norm         =  1.699D-06 for orbital    937a         

 ENERGY CONVERGED !

          Overall gridpoints after grid construction =        263378

 ITERATION  ENERGY          1e-ENERGY        2e-ENERGY     NORM[dD(SAO)]  TOL
  14  -392.73902613560    -1643.3791181     688.30392321    0.000D+00 0.312D-11
                            Exc = -61.3183620164     Coul =  749.622285224    
                              N = 80.000079916    
                            current damping = 0.550
 
          Norm of current diis error: 0.11813E-04
          max. resid. norm for Fia-block=  3.174D-07 for orbital     21a         
          max. resid. fock norm         =  3.929D-07 for orbital      2a         

 End of SCF iterations

   convergence criteria satisfied after    14 iterations


                  ------------------------------------------ 
                 |  total energy      =   -392.73902613560  |
                  ------------------------------------------ 
                 :  kinetic energy    =    390.98220720921  :
                 :  potential energy  =   -783.72123334481  :
                 :  virial theorem    =      1.99552675235  :
                 :  wavefunction norm =      1.00000000000  :
                  .......................................... 


 orbitals $scfmo  will be written to file mos

    irrep                 36a         37a         38a         39a         40a   
 eigenvalues H         -0.29002    -0.28692    -0.27532    -0.27096    -0.26986
            eV          -7.8919     -7.8076     -7.4918     -7.3733     -7.3434
 occupation              2.0000      2.0000      2.0000      2.0000      2.0000 

    irrep                 41a         42a         43a         44a         45a   
 eigenvalues H         -0.00576     0.00771     0.01332     0.02132     0.02361
            eV          -0.1567      0.2098      0.3625      0.5802      0.6425
 
 
 
 
 ==============================================================================
                           electrostatic moments
 ==============================================================================

 reference point for electrostatic moments:    0.00000   0.00000   0.00000

 
              nuc           elec       ->  total
 ------------------------------------------------------------------------------
                          charge      
 ------------------------------------------------------------------------------
          80.000000     -80.000000       0.000000
 
 ------------------------------------------------------------------------------
                       dipole moment  
 ------------------------------------------------------------------------------
   x      -0.053058       0.036436      -0.016622
   y       0.109713      -0.102195       0.007518
   z     465.327101    -465.326793       0.000308
 
   | dipole moment | =     0.0182 a.u. =     0.0464 debye 
 
 ------------------------------------------------------------------------------
                     quadrupole moment
 ------------------------------------------------------------------------------
  xx     291.676854    -342.449913     -50.773060
  yy     299.138854    -349.907933     -50.769079
  zz    4063.644138   -4112.443501     -48.799363
  xy       4.408562      -4.406196       0.002366
  xz      37.250253     -37.410344      -0.160091
  yz      79.457905     -79.561979      -0.104074
 
     1/3  trace=     -50.113834
     anisotropy=       1.999259
 
 ==============================================================================
 


    ------------------------------------------------------------------------
         total  cpu-time :  8 minutes and 16 seconds
         total wall-time :  1 minutes and 52 seconds
    ------------------------------------------------------------------------

   ****  ridft : all done  ****


    2019-03-12 22:41:33.736 

