           Doing BLAS/Lapack in the master proc. with  8 CPUs.
           SMPCPUS    set: Shared-memory Parallelization with   8 CPUs.

           SMP Parallelization Reference:
           C. van Wullen, J. Comput. Chem. 32 (2011) 1195--1201
 operating system is UNIX !

 ridft (c-8-334.gp.local) : TURBOMOLE V7.2 ( 21454 ) 4 Oct 2017 at 12:48:15
 Copyright (C) 2017 TURBOMOLE GmbH, Karlsruhe


    2018-04-28 20:54:14.585 



                                  r i d f t

                        DFT program with RI approximation 
                                for coulomb part 




                                                 
                                 References:     
                                                 
          TURBOMOLE:                             
              R. Ahlrichs, M. Baer, M. Haeser, H. Horn, and
              C. Koelmel
              Electronic structure calculations on workstation
              computers: the program system TURBOMOLE
              Chem. Phys. Lett. 162: 165 (1989)
          Density Functional:                              
              O. Treutler and R. Ahlrichs                      
              Efficient Molecular Numerical Integration Schemes
              J. Chem. Phys. 102: 346 (1995)                   
          Parallel Version:                                
              Performance of parallel TURBOMOLE for Density    
              Functional Calculations                          
              M. v. Arnim and R. Ahlrichs                      
              J. Comp. Chem. 19: 1746 (1998)                   
          RI-J Method:                                     
              Auxiliary Basis Sets to approximate Coulomb      
              Potentials                                       
              Chem. Phys. Lett. 240: 283 (1995)                
              K. Eichkorn, O. Treutler, H. Oehm, M. Haeser     
              and R. Ahlrichs                                  
              Chem. Phys. Lett. 242: 652 (1995)                
                                                           
              Auxiliary Basis Sets for Main Row Atoms and their
              Use to approximate Coulomb Potentials            
              K. Eichkorn, F. Weigend, O. Treutler and         
              R. Ahlrichs                                      
              Theo. Chem. Acc. 97: 119 (1997)                   
                                                           
              Accurate Coulomb-fitting basis sets for H to Rn 
              F. Weigend                                        
              Phys. Chem. Chem. Phys. 8: 1057 (2006)            
                                                           
          Multipole accelerated RI-J (MARI-J):             
              Fast evaluation of the Coulomb potential for     
              electron densities using multipole accelerated   
              resolution of identity approximation             
              M. Sierka, A. Hogekamp and R. Ahlrichs           
              J. Chem. Phys. 118: 9136 (2003)                  
          RI-JK Method:                                     
              A fully direct RI-HF algorithm: Implementation,
              optimised auxiliary basis sets, demonstration of
              accuracy and efficiency                         
              F. Weigend                                      
              Phys. Chem. Chem. Phys. 4: 4285 (2002)           
          Two-component HF and DFT with spin-orbit coupling:  
              Self-consistent treatment of spin-orbit         
              interactions with efficient Hartree-Fock and    
              density functional methods                      
              M. K. Armbruster, F. Weigend, C. van Wüllen and 
              W. Klopper                                      
              Phys. Chem. Chem. Phys. 10: 1748 (2008)         
          Relativistic all-electron 2c calculations           
              An efficient implementation of two-component    
              relativistic exact-decoupling methods for large 
              molecules                                       
              D. Peng, N. Middendorf, F. Weigend, M. Reiher   
              J. Chem. Phys. 138, 184105 (2013)               
                                         




              +--------------------------------------------------+
              |      general information about current run       |
              +--------------------------------------------------+

 

 DENSITY CONVERGENCE CHECK SWITCHED ON !
 SCF CONVERGENCE IF RMS(delta[D]) <     0.1000000000E-06

 PBE functional
 exchange:    LDA + PBE
 correlation: LDA (PW) + PBE
 A DFT calculation using the RI-J approximation will be carried out.
 Allocatable memory for RI due to $ricore (MB):                  5000


              +--------------------------------------------------+
              | Atomic coordinate, charge and isotop information |
              +--------------------------------------------------+

                    atomic coordinates            atom    charge  isotop
         -0.99272944   -0.09632139   -0.59435073    o      0.000     0
         -1.78013455    1.41332926    0.02126474    h      0.000     0
          0.76287587    0.11297913   -0.13902407    h      0.000     0
          4.37780247    0.08598414    0.13579268    o      8.000     0
          5.07318923   -0.99508548    1.41613566    h      1.000     0
          5.25653470   -0.80526723   -2.24934238    c      6.000     0
          4.44240838    0.42512153   -3.67252165    h      1.000     0
          7.30870866   -0.70928264   -2.38977157    h      1.000     0
          4.63605708   -2.73254127   -2.62555026    h      1.000     0
 
       center of nuclear mass  :    2.75486104   -0.24657239   -0.83507922
       center of nuclear charge:    4.89011063   -0.45308434   -1.09341226

              +--------------------------------------------------+
              |               basis set information              |
              +--------------------------------------------------+

              we will work with the 1s 3p 5d 7f 9g ... basis set
              ...i.e. with spherical basis functions...

   type   atoms  prim   cont   basis
   ---------------------------------------------------------------------------
    o        2     77     55   cc-pVQZ   [5s4p3d2f1g|21s6p3d2f1g]
    h        6     32     30   cc-pVQZ   [4s3p2d1f|6s3p2d1f]
    c        1     77     55   cc-pVQZ   [5s4p3d2f1g|21s6p3d2f1g]
   ---------------------------------------------------------------------------
   total:    9    423    345
   ---------------------------------------------------------------------------

   total number of primitive shells          :   78
   total number of contracted shells         :  105
   total number of cartesian basis functions :  420
   total number of SCF-basis functions       :  345


 integral neglect threshold       :  0.79E-13
 integral storage threshold THIZE :  0.10E-04
 integral storage threshold THIME :         5

 RI-J AUXILIARY BASIS SET information:

              we will work with the 1s 3p 5d 7f 9g ... basis set
              ...i.e. with spherical basis functions...

   type   atoms  prim   cont   basis
   ---------------------------------------------------------------------------
    o        2     70     49   cc-pVQZ   [6s4p3d1f1g|12s5p4d2f1g]
    h        6     16     11   cc-pVQZ   [3s1p1d|5s2p1d]
    c        1     70     49   cc-pVQZ   [6s4p3d1f1g|12s5p4d2f1g]
   ---------------------------------------------------------------------------
   total:    9    306    213
   ---------------------------------------------------------------------------

   total number of primitive shells          :   56
   total number of contracted shells         :   75
   total number of cartesian basis functions :  255
   total number of SCF-basis functions       :  213


 symmetry group of the molecule :   c1 

 the group has the following generators :
   c1(z)

    1 symmetry operations found

 there are 1 real representations :   a   

 maximum number of shells which are related by symmetry :  1


    mo occupation :
   irrep   mo's   occupied
    a      345        9
 
 number of basis functions   :                    345
 number of occupied orbitals :                      9
 
  
           ------------------
           density functional
           ------------------
 Dummy atoms with grid-point found.
 DFT quadrature threshold dgrenze tightened by factor 1/10.

 PBE functional
 exchange:    LDA + PBE
 correlation: LDA (PW) + PBE
 Dummy atoms with grid-point found.
 DFT quadrature threshold dgrenze tightened by factor 1/10.

 Dummy atoms with grid-point found.
 DFT quadrature threshold dgrenze tightened by factor 1/10.


 iterations will be done with small grid
  
 spherical integration : Lebedev's spherical grid
 spherical gridsize    :                     5
    i.e. gridpoints    :                   590
 value for diffuse not defined
 radial integration    : Chebyshev 2nd kind (scaling 3)
 radial gridsize       :                     8
 integration cells     :                     9
 partition function    : becke
 partition sharpness   :                     3
  
 found dummy atom(s) with basis: included in dft

 biggest AO integral is expected to be     4.785886462
  
           ------------------------
               RI-J - INFORMATION
           ------------------------
 Contributions to RI integral batches: 
  neglected integral batches:                   655
  direct contribution:                            0
  memory contribution:                  4910
 Memory core needed for (P|Q) and Cholesky      1 MByte
 Memory core minimum needed except of (P|Q)     1 MByte
 Total minimum memory core needed (sum)         1 MByte
  
 ****************************************
 Memory allocated for RI-J   151 MByte
 ****************************************
                                            

          ------------------------
          nuclear repulsion energy  :   40.2946319160    
          ------------------------


         -----------------
         -S,T+V- integrals
         -----------------

 1e-integrals will be neglected if expon. factor < 0.795705E-14
 Difference densities >>NOT<< switched on in parallel ridft!

 DIIS switched on: error vector is FDS-SDF
 Max. Iterations for DIIS is     :   4
 DIIS matrix (see manual) 
    Scaling factor of diagonals  :  1.200
    threshold for scaling factor :  0.000

 scf convergence criterion : increment of total energy < .1000000D-08
                  and increment of one-electron energy < .1000000D-05

  MOs are in ASCII format !


 automatic virtual orbital shift switched on 
      shift if e(lumo)-e(homo) < 0.10000000    


 reading orbital data $scfmo  from file mos
 orbital characterization : expanded
 mo provided and orthogonalized by Cholesky decomposition

 DSCF restart information will be dumped onto file mos


 Starting SCF iterations

          Overall gridpoints after grid construction =         44930

 ITERATION  ENERGY          1e-ENERGY        2e-ENERGY     RMS[dD(SAO)]   TOL
   1  -115.17800325764    -236.16791219     80.695277019    0.000D+00 0.794D-13
                            Exc = -15.2583116263     Coul =  95.9535886453    
                              N = 17.999987786    
                            current damping = 0.700
 
          max. resid. norm for Fia-block=  3.224D-01 for orbital      1a         
          max. resid. fock norm         =  3.727D+01 for orbital    337a         

 ITERATION  ENERGY          1e-ENERGY        2e-ENERGY     RMS[dD(SAO)]   TOL
   2  -115.55720429537    -236.38482835     80.532992135    0.327D-02 0.794D-13
                            Exc = -15.2503218047     Coul =  95.7833139397    
                              N = 17.999992694    
                            current damping = 0.650
 
          Norm of current diis error:  1.6213    
          max. resid. norm for Fia-block=  1.392D-01 for orbital      1a         
          max. resid. fock norm         =  2.052D-01 for orbital    309a         

 ITERATION  ENERGY          1e-ENERGY        2e-ENERGY     RMS[dD(SAO)]   TOL
   3  -115.61644833633    -236.99292104     81.081840792    0.163D-02 0.794D-13
                            Exc = -15.3517932412     Coul =  96.4336340328    
                              N = 17.999995014    
                            current damping = 0.600
 
          Norm of current diis error: 0.76553    
          max. resid. norm for Fia-block=  5.621D-02 for orbital      1a         
          max. resid. fock norm         =  5.915D-02 for orbital      1a         

 ITERATION  ENERGY          1e-ENERGY        2e-ENERGY     RMS[dD(SAO)]   TOL
   4  -115.63418396327    -236.72536902     80.796553136    0.955D-03 0.794D-13
                            Exc = -15.3307894769     Coul =  96.1273426133    
                              N = 17.999997038    
                            current damping = 0.650
 
          Norm of current diis error: 0.29500    
          max. resid. norm for Fia-block=  2.076D-02 for orbital      4a         
          max. resid. fock norm         =  3.686D-02 for orbital    312a         

 ITERATION  ENERGY          1e-ENERGY        2e-ENERGY     RMS[dD(SAO)]   TOL
   5  -115.63719174435    -237.01673660     81.084912936    0.386D-03 0.794D-13
                            Exc = -15.3706549547     Coul =  96.4555678903    
                              N = 17.999997545    
                            current damping = 0.700
 
          Norm of current diis error: 0.12436    
          max. resid. norm for Fia-block=  8.719D-03 for orbital      8a         
          max. resid. fock norm         =  1.160D-02 for orbital    207a         
          mo-orthogonalization: Cholesky decomposition

 ITERATION  ENERGY          1e-ENERGY        2e-ENERGY     RMS[dD(SAO)]   TOL
   6  -115.63780167287    -236.92541193     80.992978341    0.238D-03 0.794D-13
                            Exc = -15.3628836277     Coul =  96.3558619683    
                              N = 17.999997865    
                            current damping = 0.750
 
          Norm of current diis error: 0.48445E-01
          max. resid. norm for Fia-block=  3.463D-03 for orbital      1a         
          max. resid. fock norm         =  4.744D-03 for orbital    313a         

 ITERATION  ENERGY          1e-ENERGY        2e-ENERGY     RMS[dD(SAO)]   TOL
   7  -115.63790056257    -236.95010388     81.017571404    0.849D-04 0.794D-13
                            Exc = -15.3664772497     Coul =  96.3840486534    
                              N = 17.999997988    
                            current damping = 0.800
 
          Norm of current diis error: 0.19422E-01
          max. resid. norm for Fia-block=  1.475D-03 for orbital      1a         
          max. resid. fock norm         =  2.883D-03 for orbital    342a         

 ITERATION  ENERGY          1e-ENERGY        2e-ENERGY     RMS[dD(SAO)]   TOL
   8  -115.63791732126    -236.95213086     81.019581624    0.382D-04 0.794D-13
                            Exc = -15.3671944271     Coul =  96.3867760507    
                              N = 17.999998028    
                            current damping = 0.650
 
          Norm of current diis error: 0.89297E-02
          max. resid. norm for Fia-block=  6.568D-04 for orbital      1a         
          max. resid. fock norm         =  1.152D-03 for orbital    343a         

 ITERATION  ENERGY          1e-ENERGY        2e-ENERGY     RMS[dD(SAO)]   TOL
   9  -115.63792114060    -236.95496792     81.022414861    0.189D-04 0.794D-13
                            Exc = -15.3676845286     Coul =  96.3900993892    
                              N = 17.999998054    
                            current damping = 0.500
 
          Norm of current diis error: 0.33584E-02
          max. resid. norm for Fia-block=  2.618D-04 for orbital      1a         
          max. resid. fock norm         =  6.156D-04 for orbital    342a         

 ITERATION  ENERGY          1e-ENERGY        2e-ENERGY     RMS[dD(SAO)]   TOL
  10  -115.63792170640    -236.95382453     81.021270906    0.884D-05 0.794D-13
                            Exc = -15.3676602861     Coul =  96.3889311918    
                              N = 17.999998063    
                            current damping = 0.550
 
          Norm of current diis error: 0.13783E-02
          max. resid. norm for Fia-block=  9.676D-05 for orbital      4a         
          max. resid. fock norm         =  1.507D-04 for orbital    282a         
          mo-orthogonalization: Cholesky decomposition

 ITERATION  ENERGY          1e-ENERGY        2e-ENERGY     RMS[dD(SAO)]   TOL
  11  -115.63792177941    -236.95565631     81.023102617    0.225D-05 0.794D-13
                            Exc = -15.3678875699     Coul =  96.3909901865    
                              N = 17.999998066    
                            current damping = 0.600
 
          Norm of current diis error: 0.57850E-03
          max. resid. norm for Fia-block=  3.943D-05 for orbital      8a         
          max. resid. fock norm         =  7.719D-05 for orbital    342a         

 ITERATION  ENERGY          1e-ENERGY        2e-ENERGY     RMS[dD(SAO)]   TOL
  12  -115.63792179193    -236.95505284     81.022499136    0.122D-05 0.794D-13
                            Exc = -15.3678265417     Coul =  96.3903256782    
                              N = 17.999998068    
                            current damping = 0.650
 
          Norm of current diis error: 0.18679E-03
          max. resid. norm for Fia-block=  1.262D-05 for orbital      4a         
          max. resid. fock norm         =  3.645D-05 for orbital    342a         

 ITERATION  ENERGY          1e-ENERGY        2e-ENERGY     RMS[dD(SAO)]   TOL
  13  -115.63792179309    -236.95508618     81.022532469    0.315D-06 0.794D-13
                            Exc = -15.3678366267     Coul =  96.3903690954    
                              N = 17.999998068    
                            current damping = 0.700
 
          Norm of current diis error: 0.69330E-04
          max. resid. norm for Fia-block=  4.618D-06 for orbital      1a         
          max. resid. fock norm         =  9.119D-06 for orbital    343a         

 ITERATION  ENERGY          1e-ENERGY        2e-ENERGY     RMS[dD(SAO)]   TOL
  14  -115.63792179330    -236.95510369     81.022549985    0.135D-06 0.794D-13
                            Exc = -15.3678391299     Coul =  96.3903891146    
                              N = 17.999998068    
                            current damping = 0.550
 
          Norm of current diis error: 0.24151E-04
          max. resid. norm for Fia-block=  1.868D-06 for orbital      1a         
          max. resid. fock norm         =  4.558D-06 for orbital    343a         

 DENSITY CONVERGED !


 ITERATION  ENERGY          1e-ENERGY        2e-ENERGY     RMS[dD(SAO)]   TOL
  15  -115.63792179333    -236.95511445     81.022560743    0.576D-07 0.794D-13
                            Exc = -15.3678408236     Coul =  96.3904015662    
                              N = 17.999998068    
                            current damping = 0.400
 
          Norm of current diis error: 0.85551E-05
          max. resid. norm for Fia-block=  7.087D-07 for orbital      8a         
          max. resid. fock norm         =  2.051D-06 for orbital    343a         
          mo-orthogonalization: Cholesky decomposition

 ENERGY & DENSITY CONVERGED !

          Overall gridpoints after grid construction =        136413

 ITERATION  ENERGY          1e-ENERGY        2e-ENERGY     RMS[dD(SAO)]   TOL
  16  -115.63792525991    -236.95510625     81.022549077    0.268D-07 0.794D-13
                            Exc = -15.3678436034     Coul =  96.3903926807    
                              N = 17.999999657    
                            current damping = 0.450
 
          Norm of current diis error: 0.49856E-05
          max. resid. norm for Fia-block=  3.368D-07 for orbital      5a         
          max. resid. fock norm         =  5.292D-07 for orbital    291a         

 End of SCF iterations

   convergence criteria satisfied after    16 iterations


                  ------------------------------------------ 
                 |  total energy      =   -115.63792525991  |
                  ------------------------------------------ 
                 :  kinetic energy    =    115.21425018520  :
                 :  potential energy  =   -230.85217544512  :
                 :  virial theorem    =      1.99633619270  :
                 :  wavefunction norm =      1.00000000000  :
                  .......................................... 


 <geterg> : there is no data group $energy 


 <skperg> : $end is missing 


 orbitals $scfmo  will be written to file mos

    irrep                  5a          6a          7a          8a          9a   
 eigenvalues H         -0.45776    -0.39132    -0.37933    -0.29336    -0.22885
            eV         -12.4564    -10.6484    -10.3222     -7.9828     -6.2274
 occupation              2.0000      2.0000      2.0000      2.0000      2.0000 

    irrep                 10a         11a         12a         13a         14a   
 eigenvalues H         -0.00159     0.03535     0.06853     0.07870     0.09704
            eV          -0.0434      0.9618      1.8647      2.1415      2.6407
 
 
 
 
 ==============================================================================
                           electrostatic moments
 ==============================================================================

 reference point for electrostatic moments:    0.00000   0.00000   0.00000

 
              nuc           elec       ->  total
 ------------------------------------------------------------------------------
                          charge      
 ------------------------------------------------------------------------------
          18.000000     -18.000000      -0.000000
 
 ------------------------------------------------------------------------------
                       dipole moment  
 ------------------------------------------------------------------------------
   x      88.021991     -87.631095       0.390897
   y      -8.155518       7.664766      -0.490753
   z     -19.681421      19.607378      -0.074043
 
   | dipole moment | =     0.6318 a.u. =     1.6058 debye 
 
 ------------------------------------------------------------------------------
                     quadrupole moment
 ------------------------------------------------------------------------------
  xx     439.490667    -446.126048      -6.635381
  yy      13.090665     -22.883100      -9.792435
  zz      58.602142     -67.004503      -8.402361
  xy     -43.397969      40.867252      -2.530717
  xz    -104.955551     104.913365      -0.042186
  yz      16.860342     -17.448870      -0.588527
 
     1/3  trace=      -8.276726
     anisotropy=       5.269608
 
 ==============================================================================
 


    ------------------------------------------------------------------------
         total  cpu-time :  2 minutes and 54 seconds
         total wall-time :  19.74 seconds
    ------------------------------------------------------------------------

   ****  ridft : all done  ****


    2018-04-28 20:54:34.293 

