
   OpenMP run-time library returned nthreads = 28

 ricc2 (c-16-37) : TURBOMOLE V7.3 ( 22142 ) 4 Jul 2018 at 18:12:42
 Copyright (C) 2018 TURBOMOLE GmbH, Karlsruhe


    2019-04-01 23:40:16.093 



                              R I C C 2 - PROGRAM

                          the quantum chemistry groups
                             at the universities in
                           Karlsruhe, Bochum & Mainz
                                   Germany



   *-----------------------------------------------------------------------*
   |                     program will use 28 thread(s)                     |
   *-----------------------------------------------------------------------*


              +--------------------------------------------------+
              | Atomic coordinate, charge and isotop information |
              +--------------------------------------------------+

                    atomic coordinates            atom    charge  isotop
          1.82184790    1.65368669    0.71434225    c      6.000     0
          3.13662339    3.21240370    0.84289774    h      1.000     0
          2.70430597   -0.78070905    0.22486138    c      6.000     0
          4.70451956   -1.10966451   -0.03214918    h      1.000     0
          1.00935500   -2.79233284    0.08015756    c      6.000     0
          1.69501119   -4.68158557   -0.28726103    h      1.000     0
         -1.56909029   -2.36896840    0.41735756    c      6.000     0
         -2.88326856   -3.92992049    0.31013532    h      1.000     0
         -2.45208435    0.06503041    0.90752704    c      6.000     0
         -4.44916378    0.39309349    1.18780806    h      1.000     0
         -0.75673155    2.07828152    1.06127278    c      6.000     0
         -1.43705195    3.95664962    1.48297577    h      1.000     0
 
       center of nuclear mass  :    0.12638411   -0.35768275    0.56886245
       center of nuclear charge:    0.12648300   -0.35783557    0.56994091

              +--------------------------------------------------+
              |               basis set information              |
              +--------------------------------------------------+

              we will work with the 1s 3p 5d 7f 9g ... basis set
              ...i.e. with spherical basis functions...

   type   atoms  prim   cont   basis
   ---------------------------------------------------------------------------
    c        6     77     55   cc-pVQZ   [5s4p3d2f1g|21s6p3d2f1g]
    h        6     32     30   cc-pVQZ   [4s3p2d1f|6s3p2d1f]
   ---------------------------------------------------------------------------
   total:   12    654    510
   ---------------------------------------------------------------------------

   total number of primitive shells          :   45
   total number of contracted shells         :  150
   total number of cartesian basis functions :  630
   total number of SCF-basis functions       :  510


 symmetry group of the molecule :   c1 

 the group has the following generators :
   c1(z)

    1 symmetry operations found

 there are 1 real representations :   a   


   =========================================================================


     restricted closed shell calculation for the wavefunction models:
               MP2        - Second Order Moeller Plesset PT


     global parameters for ricc2 program:

        hard restart (reuse of interm.) :  disabled
        soft restart (reuse of vectors) :  disabled
        threshold for vector function   :    0.100000E-05
        convergence threshold energy    :    0.100000E-06
        linear dependence threshold     :    0.100000E-13
        global print level              :      1
        maximum number of iterations    :   300
        maximum number DIIS vectors     :    10
        max. dim. of reduced space      :   100
        core memory limit (MB)          : *****


     MP2 energy only: Energy will be calculated directly from T2 amplitudes!

     Scratch Directory : 


   =========================================================================

    der. integral neglect threshold  :  0.10E-07
    integral neglect threshold       :  0.53E-11
    integral storage threshold THIZE :  0.10E-04
    integral storage threshold THIME :         5


                  +------------------------------------------+
                  |     Auxiliary basis set information      |
                  +------------------------------------------+

              we will work with the 1s 3p 5d 7f 9g ... basis set
              ...i.e. with spherical basis functions...

   type   atoms  prim   cont   basis
   ---------------------------------------------------------------------------
    c        6    132    132   cc-pVQZ   [8s7p6d5f3g1h|8s7p6d5f3g1h]
    h        6     55     55   cc-pVQZ   [5s4p3d2f1g|5s4p3d2f1g]
   ---------------------------------------------------------------------------
   total:   12   1122   1122
   ---------------------------------------------------------------------------

   total number of primitive shells          :   45
   total number of contracted shells         :  270
   total number of cartesian basis functions : 1506
   total number of SCF-basis functions       : 1122


 maximum number of shells which are related by symmetry :  1


 The symmetry information takes   1 MB

*---------------------------------------------------------------------*
|               simplified C1 algorithm will be applied               |
*---------------------------------------------------------------------*
  MOs are in ASCII format !


 reading orbital data $scfmo  from file mos
 orbital characterization : scfconv=9



              +--------------------------------------------+
              | list of orbitals that will be kept frozen: |
              +--------------------------------------------+
              |   irrep   index      energy     occ/vir    |
              +--------------------------------------------+
              |   a         1      -11.2344     occupied   |
              |   a         2      -11.2338     occupied   |
              |   a         3      -11.2338     occupied   |
              |   a         4      -11.2326     occupied   |
              |   a         5      -11.2326     occupied   |
              |   a         6      -11.2320     occupied   |
              +--------------------------------------------+



   Molecular Orbital Statistic:
   ============================

   -----------------------------
   orbitals in total:
   -----------------------------
    frozen occupied :      6
    active occupied :     15
    active virtual  :    489
    frozen virtual  :      0
    all together    :    510
   -----------------------------


     time in riccmos       cpu:  4.64 sec    wall:  0.35 sec    ratio: 13.2

     total memory allocated for calculation of (Q|P)**(-1/2) : 15 MiB


     calculation of (P|Q) ...
     time in lp2sym        cpu:  2.66 sec    wall:  0.11 sec    ratio: 24.4


     calculation of the Cholesky decomposition of (P|Q)**(-1) ...
     time in invmetri      cpu:  5.13 sec    wall:  0.19 sec    ratio: 27.7

   threshold for RMS(d[D]) in SCF was     :  0.10E-06
   integral neglect threshold             :  0.53E-11
   derivative integral neglect threshold  :  0.10E-07


   =========================================================================

     Energy of reference wave function is  -230.7936285517000
     Maximum orbital residual is           0.1125603678200E-06


     Number of symmetry-nonredundant auxiliary basis functions:     1122

     Block lengths for integral files:
        frozen occupied (BOI):        1 MiB
        active occupied (BJI):        1 MiB
        active virtual  (BAI):        5 MiB
        frozen virtual  (BGI):        0 MiB
               general  (BTI):        5 MiB

   =========================================================================




   **************************************************************************
   *                                                                        *
   *          OPTIMIZATION OF THE GROUND STATE CLUSTER AMPLITUDES           *
   *                                                                        *
   **************************************************************************


   Iter.   MP2 energy       Norm(Omega)   Norm(t1)  Norm(t2)     cpu    wall
   ...........................................................................
    1   -231.8025853827     ------          0.00000   0.34189    0.48    0.02
   ...........................................................................


     time in total         cpu: 29.34 sec    wall:  1.10 sec    ratio: 26.7


     **********************************************************************
     *                                                                    *
     *   RHF  energy                             :   -230.7936285517      *
     *   MP2 correlation energy (doubles)        :     -1.0089568310      *
     *                                                                    *
     *   Final MP2 energy                        :   -231.8025853827      *
     *                                                                    *
     *    E(S)   =     -0.6411503047      E(T)   =     -0.3678065263      *
     *    E(OS)  =     -0.7637524801      E(SS)  =     -0.2452043509      *
     *                                                                    *
     *   SCS-MP2 energy                          :   -231.7918663115      *
     *   (computed with  C(OS) =   1.2000  and  C(SS) =   0.3333)         *
     *                                                                    *
     *   SOS-MP2 energy                          :   -231.7865067758      *
     *   (computed with  C(OS) =   1.3000)                                *
     *                                                                    *
     *   Norm of MP1 T2 amplitudes               :      0.3418948917      *
     *                                                                    *
     **********************************************************************



    ------------------------------------------------------------------------
         total  cpu-time :  1 minutes and 25 seconds
         total wall-time :   3.56 seconds
    ------------------------------------------------------------------------

   ****  ricc2 : all done  ****


    2019-04-01 23:40:19.604 

