
   OpenMP run-time library returned nthreads = 32
 operating system is UNIX !

 dscf (c-15-24) : TURBOMOLE V7.3 ( 22142 ) 4 Jul 2018 at 18:12:42
 Copyright (C) 2018 TURBOMOLE GmbH, Karlsruhe


    2019-03-03 12:01:05.194 



                             d s c f - program

                   idea & directorship : reinhart ahlrichs
                   program development : marco haeser
                                         michael baer
                           dft version : oliver treutler


                          quantum chemistry group
                          universitaet  karlsruhe
                                  germany




                          References             
                                                 
          TURBOMOLE:                             
              R. Ahlrichs, M. Baer, M. Haeser, H. Horn, and
              C. Koelmel
              Electronic structure calculations on workstation
              computers: the program system TURBOMOLE
              Chem. Phys. Lett. 162: 165 (1989)
          Density Functional:                              
              O. Treutler and R. Ahlrichs                      
              Efficient Molecular Numerical Integration Schemes
              J. Chem. Phys. 102: 346 (1995)                   
          Parallel Version:                                
              Performance of parallel TURBOMOLE for Density    
              Functional Calculations                          
              M. v. Arnim and R. Ahlrichs                      
              J. Comp. Chem. 19: 1746 (1998)                   
                                         



 UHF mode switched on !


              +--------------------------------------------------+
              | Atomic coordinate, charge and isotop information |
              +--------------------------------------------------+

                    atomic coordinates            atom    charge  isotop
          0.00000000    2.67619026    0.00000000    c      6.000     0
          0.00000000   -2.67619026    0.00000000    c      6.000     0
         -2.33600471   -1.28361301    0.00000000    c      6.000     0
         -2.33600471    1.28361301    0.00000000    c      6.000     0
          2.33600471   -1.28361301    0.00000000    c      6.000     0
          2.33600471    1.28361301    0.00000000    c      6.000     0
          0.00000000   -5.31470187    0.00000000    c      6.000     0
          0.00000000    5.31470187    0.00000000    c      6.000     0
         -2.28803089    6.71761315    0.00000000    c      6.000     0
         -2.28803089   -6.71761315    0.00000000    c      6.000     0
          2.28803089   -6.71761315    0.00000000    c      6.000     0
          2.28803089    6.71761315    0.00000000    c      6.000     0
         -4.17936506    7.84191527    0.00000000    n      7.000     0
          4.17936506   -7.84191527    0.00000000    n      7.000     0
          4.17936506    7.84191527    0.00000000    n      7.000     0
         -4.17936506   -7.84191527    0.00000000    n      7.000     0
         -4.10412672   -2.32439188    0.00000000    h      1.000     0
          4.10412672   -2.32439188    0.00000000    h      1.000     0
          4.10412672    2.32439188    0.00000000    h      1.000     0
         -4.10412672    2.32439188    0.00000000    h      1.000     0
 
       center of nuclear mass  :    0.00000000    0.00000000    0.00000000
       center of nuclear charge:    0.00000000    0.00000000    0.00000000

              +--------------------------------------------------+
              |               basis set information              |
              +--------------------------------------------------+

              we will work with the 1s 3p 5d 7f 9g ... basis set
              ...i.e. with spherical basis functions...

   type   atoms  prim   cont   basis
   ---------------------------------------------------------------------------
    c       12     50     30   cc-pVTZ   [4s3p2d1f|18s5p2d1f]
    n        4     50     30   cc-pVTZ   [4s3p2d1f|18s5p2d1f]
    h        4     16     14   cc-pVTZ   [3s2p1d|5s2p1d]
   ---------------------------------------------------------------------------
   total:   20    864    536
   ---------------------------------------------------------------------------

   total number of primitive shells          :   60
   total number of contracted shells         :  184
   total number of cartesian basis functions :  620
   total number of SCF-basis functions       :  536


 integral neglect threshold       :  0.54E-13
 integral storage threshold THIZE :  0.10E-04
 integral storage threshold THIME :         5


 DENSITY CONVERGENCE CHECK SWITCHED ON !
 SCF CONVERGENCE IF RMS(delta[D]) <     0.1000000000E-06


 symmetry group of the molecule :   c1 

 the group has the following generators :
   c1(z)

    1 symmetry operations found

 there are 1 real representations :   a   

 maximum number of shells which are related by symmetry :  1


    mo occupation :
   irrep   mo's   occupied
    a      536       52
 
 number of basis functions   :                    536
 number of occupied orbitals :                     52
 

 automatic virtual orbital shift switched on 
      shift if e(lumo)-e(homo) < 0.10000000    


          ------------------------
          nuclear repulsion energy  :   835.046582261    
          ------------------------


         -----------------
         -S,T+V- integrals
         -----------------

 1e-integrals will be neglected if expon. factor < 0.539026E-14
 
   Difference densities algorithm switched on.
   The maximal number of linear combinations of
   difference densities is                    20 .

 DIIS switched on: error vector is FDS-SDF
 Max. Iterations for DIIS is     :   5
 DIIS matrix (see manual) 
    Scaling factor of diagonals  :  1.200
    threshold for scaling factor :  0.000

 scf convergence criterion : increment of total energy < .1000000D-08
                  and increment of one-electron energy < .1000000D-05

  MOs are in ASCII format !


 reading orbital data $uhfmo_alpha  from file alpha
 orbital characterization : scfconv=9

 reading orbital data $uhfmo_beta  from file beta
 orbital characterization : scfconv=9

 DSCF restart information will be dumped onto file alpha

 
                                              current damping :  0.300
 ITERATION  ENERGY          1e-ENERGY        2e-ENERGY     RMS[dD(SAO)]   TOL
   1  -674.63329905353    -2566.9656830     1057.2858017    0.000D+00 0.538D-13
          max. resid. norm for Fia-block=  4.774D-02 for orbital     52a    beta 
          max. resid. fock norm         =  5.466D-02 for orbital     52a    beta 
          Delta Eig. =     4.4526715574 eV 
 
                                              current damping :  0.250
 ITERATION  ENERGY          1e-ENERGY        2e-ENERGY     RMS[dD(SAO)]   TOL
   2  -674.65403128496    -2567.8355017     1058.1348882    0.329D-03 0.341D-13
          Norm of current diis error: 0.19489    
          max. resid. norm for Fia-block=  2.257D-02 for orbital     50a    beta 
          max. resid. fock norm         =  2.853D-02 for orbital     53a    alpha
          Delta Eig. =     1.7040282182 eV 
 
                                              current damping :  0.200
 ITERATION  ENERGY          1e-ENERGY        2e-ENERGY     RMS[dD(SAO)]   TOL
   3  -674.66056385585    -2567.5617665     1057.8546203    0.150D-03 0.273D-13
          Norm of current diis error: 0.11079    
          max. resid. norm for Fia-block=  2.025D-02 for orbital     50a    beta 
          max. resid. fock norm         =  2.140D-02 for orbital     50a    beta 
          Delta Eig. =     0.5995500464 eV 
 
                                              current damping :  0.250
 ITERATION  ENERGY          1e-ENERGY        2e-ENERGY     RMS[dD(SAO)]   TOL
   4  -674.66373449011    -2567.6386362     1057.9283195    0.134D-03 0.224D-13
          Norm of current diis error: 0.45030E-01
          max. resid. norm for Fia-block=  9.298D-03 for orbital     50a    beta 
          max. resid. fock norm         =  9.491D-03 for orbital     50a    beta 
          Delta Eig. =     0.1588211718 eV 
 
                                              current damping :  0.300
 ITERATION  ENERGY          1e-ENERGY        2e-ENERGY     RMS[dD(SAO)]   TOL
   5  -674.66432749394    -2567.6188700     1057.9079603    0.489D-04 0.204D-13
          Norm of current diis error: 0.26374E-01
          max. resid. norm for Fia-block=  4.061D-03 for orbital     50a    beta 
          max. resid. fock norm         =  4.141D-03 for orbital     50a    beta 
 mo-orthogonalization: Cholesky decomposition
          Delta Eig. =     0.0603399513 eV 
 
                                              current damping :  0.350
 ITERATION  ENERGY          1e-ENERGY        2e-ENERGY     RMS[dD(SAO)]   TOL
   6  -674.66453369261    -2567.6241066     1057.9129906    0.190D-04 0.191D-13
          Norm of current diis error: 0.20299E-01
          max. resid. norm for Fia-block=  4.143D-03 for orbital     47a    beta 
          max. resid. fock norm         =  4.143D-03 for orbital     47a    beta 
          Delta Eig. =     0.0312942629 eV 
 
                                              current damping :  0.400
 ITERATION  ENERGY          1e-ENERGY        2e-ENERGY     RMS[dD(SAO)]   TOL
   7  -674.66467795618    -2567.6086103     1057.8973501    0.115D-04 0.178D-13
          Norm of current diis error: 0.16897E-01
          max. resid. norm for Fia-block=  4.064D-03 for orbital     47a    beta 
          max. resid. fock norm         =  4.064D-03 for orbital     47a    beta 
          Delta Eig. =     0.0232671737 eV 
 
                                              current damping :  0.250
 ITERATION  ENERGY          1e-ENERGY        2e-ENERGY     RMS[dD(SAO)]   TOL
   8  -674.66480993146    -2567.6060327     1057.8946405    0.106D-04 0.162D-13
          Norm of current diis error: 0.14249E-01
          max. resid. norm for Fia-block=  4.641D-03 for orbital     47a    beta 
          max. resid. fock norm         =  4.641D-03 for orbital     47a    beta 
          Delta Eig. =     0.0220735611 eV 
 
                                              current damping :  0.100
 ITERATION  ENERGY          1e-ENERGY        2e-ENERGY     RMS[dD(SAO)]   TOL
   9  -674.66494936779    -2567.5926259     1057.8810943    0.127D-04 0.141D-13
          Norm of current diis error: 0.11914E-01
          max. resid. norm for Fia-block=  4.444D-03 for orbital     47a    beta 
          max. resid. fock norm         =  4.444D-03 for orbital     47a    beta 
          Delta Eig. =     0.0302369012 eV 
 
                                              current damping :  0.100
 ITERATION  ENERGY          1e-ENERGY        2e-ENERGY     RMS[dD(SAO)]   TOL
  10  -674.66508385534    -2567.5844918     1057.8728257    0.149D-04 0.121D-13
          Norm of current diis error: 0.99023E-02
          max. resid. norm for Fia-block=  3.771D-03 for orbital     47a    beta 
          max. resid. fock norm         =  3.771D-03 for orbital     47a    beta 
 mo-orthogonalization: Cholesky decomposition
          Delta Eig. =     0.0265150503 eV 
 
                                              current damping :  0.100
 ITERATION  ENERGY          1e-ENERGY        2e-ENERGY     RMS[dD(SAO)]   TOL
  11  -674.66518183998    -2567.5705755     1057.8588114    0.134D-04 0.107D-13
          Norm of current diis error: 0.86332E-02
          max. resid. norm for Fia-block=  2.900D-03 for orbital     44a    alpha
          max. resid. fock norm         =  2.900D-03 for orbital     44a    alpha
          Delta Eig. =     0.0287302783 eV 
 
                                              current damping :  0.100
 ITERATION  ENERGY          1e-ENERGY        2e-ENERGY     RMS[dD(SAO)]   TOL
  12  -674.66525572448    -2567.5653590     1057.8535210    0.121D-04 0.966D-14
          Norm of current diis error: 0.76603E-02
          max. resid. norm for Fia-block=  2.707D-03 for orbital     47a    beta 
          max. resid. fock norm         =  2.707D-03 for orbital     47a    beta 
          Delta Eig. =     0.0248870238 eV 
 
                                              current damping :  0.100
 ITERATION  ENERGY          1e-ENERGY        2e-ENERGY     RMS[dD(SAO)]   TOL
  13  -674.66531726802    -2567.5529232     1057.8410236    0.119D-04 0.886D-14
          Norm of current diis error: 0.67932E-02
          max. resid. norm for Fia-block=  2.854D-03 for orbital     46a    alpha
          max. resid. fock norm         =  2.855D-03 for orbital     46a    alpha
          Delta Eig. =     0.0325298039 eV 
 
                                              current damping :  0.100
 ITERATION  ENERGY          1e-ENERGY        2e-ENERGY     RMS[dD(SAO)]   TOL
  14  -674.66537493686    -2567.5473770     1057.8354198    0.135D-04 0.816D-14
          Norm of current diis error: 0.58428E-02
          max. resid. norm for Fia-block=  3.149D-03 for orbital     47a    beta 
          max. resid. fock norm         =  3.204D-03 for orbital     54a    beta 
          Delta Eig. =     0.0336686339 eV 
 
                                              current damping :  0.100
 ITERATION  ENERGY          1e-ENERGY        2e-ENERGY     RMS[dD(SAO)]   TOL
  15  -674.66542696212    -2567.5331224     1057.8211132    0.155D-04 0.756D-14
          Norm of current diis error: 0.47835E-02
          max. resid. norm for Fia-block=  3.580D-03 for orbital     46a    alpha
          max. resid. fock norm         =  3.604D-03 for orbital     50a    alpha
 mo-orthogonalization: Cholesky decomposition
          Delta Eig. =     0.0403292744 eV 
 
                                              current damping :  0.100
 ITERATION  ENERGY          1e-ENERGY        2e-ENERGY     RMS[dD(SAO)]   TOL
  16  -674.66546649621    -2567.5247591     1057.8127104    0.169D-04 0.706D-14
          Norm of current diis error: 0.36806E-02
          max. resid. norm for Fia-block=  3.198D-03 for orbital     50a    alpha
          max. resid. fock norm         =  3.212D-03 for orbital     50a    alpha
          Delta Eig. =     0.0350573874 eV 
 
                                              current damping :  0.100
 ITERATION  ENERGY          1e-ENERGY        2e-ENERGY     RMS[dD(SAO)]   TOL
  17  -674.66548738735    -2567.5127138     1057.8006441    0.148D-04 0.678D-14
          Norm of current diis error: 0.26995E-02
          max. resid. norm for Fia-block=  2.454D-03 for orbital     50a    alpha
          max. resid. fock norm         =  2.469D-03 for orbital     50a    alpha
          Delta Eig. =     0.0262644683 eV 
 
                                              current damping :  0.100
 ITERATION  ENERGY          1e-ENERGY        2e-ENERGY     RMS[dD(SAO)]   TOL
  18  -674.66549482557    -2567.5067335     1057.7946564    0.110D-04 0.679D-14
          Norm of current diis error: 0.20114E-02
          max. resid. norm for Fia-block=  1.543D-03 for orbital     50a    alpha
          max. resid. fock norm         =  1.545D-03 for orbital     50a    alpha
          Delta Eig. =     0.0173561162 eV 
 
                                              current damping :  0.100
 ITERATION  ENERGY          1e-ENERGY        2e-ENERGY     RMS[dD(SAO)]   TOL
  19  -674.66549654584    -2567.5017649     1057.7896861    0.661D-05 0.678D-14
          Norm of current diis error: 0.15388E-02
          max. resid. norm for Fia-block=  8.701D-04 for orbital     50a    alpha
          max. resid. fock norm         =  8.780D-04 for orbital     53a    alpha
          Delta Eig. =     0.0092570320 eV 
 
                                              current damping :  0.100
 ITERATION  ENERGY          1e-ENERGY        2e-ENERGY     RMS[dD(SAO)]   TOL
  20  -674.66549699979    -2567.5002446     1057.7881653    0.360D-05 0.678D-14
          Norm of current diis error: 0.12099E-02
          max. resid. norm for Fia-block=  4.819D-04 for orbital     50a    alpha
          max. resid. fock norm         =  5.172D-04 for orbital     53a    alpha
 mo-orthogonalization: Cholesky decomposition
          Delta Eig. =     0.0052201927 eV 
 
                                              current damping :  0.100
 ITERATION  ENERGY          1e-ENERGY        2e-ENERGY     RMS[dD(SAO)]   TOL
  21  -674.66549741005    -2567.4990578     1057.7869781    0.184D-05 0.678D-14
          Norm of current diis error: 0.95441E-03
          max. resid. norm for Fia-block=  2.693D-04 for orbital     50a    alpha
          max. resid. fock norm         =  2.942D-04 for orbital     53a    alpha
          Delta Eig. =     0.0023881971 eV 
 
                                              current damping :  0.150
 ITERATION  ENERGY          1e-ENERGY        2e-ENERGY     RMS[dD(SAO)]   TOL
  22  -674.66549784598    -2567.4994123     1057.7873322    0.107D-05 0.538D-13
          Norm of current diis error: 0.76594E-03
          max. resid. norm for Fia-block=  1.914D-04 for orbital     50a    alpha
          max. resid. fock norm         =  2.100D-04 for orbital     53a    alpha
          Delta Eig. =     0.0017445702 eV 
 
                                              current damping :  0.200
 ITERATION  ENERGY          1e-ENERGY        2e-ENERGY     RMS[dD(SAO)]   TOL
  23  -674.66549814898    -2567.4989462     1057.7868658    0.696D-06 0.341D-13
          Norm of current diis error: 0.62747E-03
          max. resid. norm for Fia-block=  1.541D-04 for orbital     49a    beta 
          max. resid. fock norm         =  1.541D-04 for orbital     49a    beta 
          Delta Eig. =     0.0014110730 eV 
 
                                              current damping :  0.250
 ITERATION  ENERGY          1e-ENERGY        2e-ENERGY     RMS[dD(SAO)]   TOL
  24  -674.66549836948    -2567.4993835     1057.7873028    0.530D-06 0.239D-13
          Norm of current diis error: 0.52914E-03
          max. resid. norm for Fia-block=  1.504D-04 for orbital     46a    alpha
          max. resid. fock norm         =  1.504D-04 for orbital     46a    alpha
          Delta Eig. =     0.0008319555 eV 
 
                                              current damping :  0.300
 ITERATION  ENERGY          1e-ENERGY        2e-ENERGY     RMS[dD(SAO)]   TOL
  25  -674.66549853095    -2567.4992817     1057.7872009    0.356D-06 0.194D-13
          Norm of current diis error: 0.46257E-03
          max. resid. norm for Fia-block=  1.438D-04 for orbital     49a    beta 
          max. resid. fock norm         =  1.438D-04 for orbital     49a    beta 
 mo-orthogonalization: Cholesky decomposition
          Delta Eig. =     0.0006348528 eV 
 
                                              current damping :  0.350
 ITERATION  ENERGY          1e-ENERGY        2e-ENERGY     RMS[dD(SAO)]   TOL
  26  -674.66549865705    -2567.4995018     1057.7874209    0.265D-06 0.166D-13
          Norm of current diis error: 0.41946E-03
          max. resid. norm for Fia-block=  1.387D-04 for orbital     46a    alpha
          max. resid. fock norm         =  1.387D-04 for orbital     46a    alpha
          Delta Eig. =     0.0006180289 eV 
 
                                              current damping :  0.200
 ITERATION  ENERGY          1e-ENERGY        2e-ENERGY     RMS[dD(SAO)]   TOL
  27  -674.66549876290    -2567.4995891     1057.7875081    0.214D-06 0.146D-13
          Norm of current diis error: 0.38540E-03
          max. resid. norm for Fia-block=  1.408D-04 for orbital     49a    beta 
          max. resid. fock norm         =  1.408D-04 for orbital     49a    beta 
          Delta Eig. =     0.0006976395 eV 
 
                                              current damping :  0.100
 ITERATION  ENERGY          1e-ENERGY        2e-ENERGY     RMS[dD(SAO)]   TOL
  28  -674.66549887411    -2567.4998106     1057.7877295    0.254D-06 0.126D-13
          Norm of current diis error: 0.35157E-03
          max. resid. norm for Fia-block=  1.448D-04 for orbital     46a    alpha
          max. resid. fock norm         =  1.449D-04 for orbital     46a    alpha
          Delta Eig. =     0.0008017588 eV 
 
                                              current damping :  0.100
 ITERATION  ENERGY          1e-ENERGY        2e-ENERGY     RMS[dD(SAO)]   TOL
  29  -674.66549898717    -2567.4999956     1057.7879143    0.314D-06 0.108D-13
          Norm of current diis error: 0.31821E-03
          max. resid. norm for Fia-block=  1.322D-04 for orbital     49a    beta 
          max. resid. fock norm         =  1.323D-04 for orbital     49a    beta 
          Delta Eig. =     0.0007261412 eV 
 
                                              current damping :  0.100
 ITERATION  ENERGY          1e-ENERGY        2e-ENERGY     RMS[dD(SAO)]   TOL
  30  -674.66549908557    -2567.5003127     1057.7882313    0.347D-06 0.936D-14
          Norm of current diis error: 0.29052E-03
          max. resid. norm for Fia-block=  1.159D-04 for orbital     46a    alpha
          max. resid. fock norm         =  1.159D-04 for orbital     46a    alpha
 mo-orthogonalization: Cholesky decomposition
          Delta Eig. =     0.0008384142 eV 
 
                                              current damping :  0.100
 ITERATION  ENERGY          1e-ENERGY        2e-ENERGY     RMS[dD(SAO)]   TOL
  31  -674.66549916758    -2567.5004764     1057.7883950    0.361D-06 0.835D-14
          Norm of current diis error: 0.26721E-03
          max. resid. norm for Fia-block=  9.381D-05 for orbital     49a    beta 
          max. resid. fock norm         =  9.386D-05 for orbital     49a    beta 
          Delta Eig. =     0.0009108901 eV 
 
                                              current damping :  0.100
 ITERATION  ENERGY          1e-ENERGY        2e-ENERGY     RMS[dD(SAO)]   TOL
  32  -674.66549923763    -2567.5008222     1057.7887407    0.367D-06 0.761D-14
          Norm of current diis error: 0.24666E-03
          max. resid. norm for Fia-block=  9.347D-05 for orbital     46a    alpha
          max. resid. fock norm         =  9.350D-05 for orbital     46a    alpha
          Delta Eig. =     0.0009985032 eV 
 
                                              current damping :  0.100
 ITERATION  ENERGY          1e-ENERGY        2e-ENERGY     RMS[dD(SAO)]   TOL
  33  -674.66549930295    -2567.5009680     1057.7888864    0.406D-06 0.701D-14
          Norm of current diis error: 0.22550E-03
          max. resid. norm for Fia-block=  1.050D-04 for orbital     50a    alpha
          max. resid. fock norm         =  1.052D-04 for orbital     50a    alpha
          Delta Eig. =     0.0011828824 eV 
 
                                              current damping :  0.100
 ITERATION  ENERGY          1e-ENERGY        2e-ENERGY     RMS[dD(SAO)]   TOL
  34  -674.66549936617    -2567.5013747     1057.7892931    0.458D-06 0.678D-14
          Norm of current diis error: 0.20286E-03
          max. resid. norm for Fia-block=  1.246D-04 for orbital     50a    alpha
          max. resid. fock norm         =  1.256D-04 for orbital     50a    alpha
          Delta Eig. =     0.0013188513 eV 
 
                                              current damping :  0.100
 ITERATION  ENERGY          1e-ENERGY        2e-ENERGY     RMS[dD(SAO)]   TOL
  35  -674.66549942595    -2567.5016026     1057.7895209    0.536D-06 0.678D-14
          Norm of current diis error: 0.17747E-03
          max. resid. norm for Fia-block=  1.351D-04 for orbital     50a    alpha
          max. resid. fock norm         =  1.356D-04 for orbital     50a    alpha
 mo-orthogonalization: Cholesky decomposition
          Delta Eig. =     0.0014880530 eV 
 
                                              current damping :  0.100
 ITERATION  ENERGY          1e-ENERGY        2e-ENERGY     RMS[dD(SAO)]   TOL
  36  -674.66549947595    -2567.5020517     1057.7899700    0.577D-06 0.678D-14
          Norm of current diis error: 0.15117E-03
          max. resid. norm for Fia-block=  1.345D-04 for orbital     50a    alpha
          max. resid. fock norm         =  1.355D-04 for orbital     50a    alpha
          Delta Eig. =     0.0013964652 eV 
 
                                              current damping :  0.100
 ITERATION  ENERGY          1e-ENERGY        2e-ENERGY     RMS[dD(SAO)]   TOL
  37  -674.66549951061    -2567.5023308     1057.7902490    0.570D-06 0.679D-14
          Norm of current diis error: 0.12592E-03
          max. resid. norm for Fia-block=  1.173D-04 for orbital     50a    alpha
          max. resid. fock norm         =  1.178D-04 for orbital     50a    alpha
          Delta Eig. =     0.0012745946 eV 
 
                                              current damping :  0.100
 ITERATION  ENERGY          1e-ENERGY        2e-ENERGY     RMS[dD(SAO)]   TOL
  38  -674.66549953024    -2567.5026883     1057.7906065    0.496D-06 0.678D-14
          Norm of current diis error: 0.10334E-03
          max. resid. norm for Fia-block=  9.588D-05 for orbital     50a    alpha
          max. resid. fock norm         =  9.664D-05 for orbital     50a    alpha
          Delta Eig. =     0.0009887169 eV 
 
                                              current damping :  0.100
 ITERATION  ENERGY          1e-ENERGY        2e-ENERGY     RMS[dD(SAO)]   TOL
  39  -674.66549953918    -2567.5028851     1057.7908033    0.404D-06 0.679D-14
          Norm of current diis error: 0.83993E-04
          max. resid. norm for Fia-block=  6.873D-05 for orbital     50a    alpha
          max. resid. fock norm         =  6.909D-05 for orbital     50a    alpha
          Delta Eig. =     0.0007468488 eV 
 
                                              current damping :  0.100
 ITERATION  ENERGY          1e-ENERGY        2e-ENERGY     RMS[dD(SAO)]   TOL
  40  -674.66549954197    -2567.5030957     1057.7910139    0.290D-06 0.678D-14
          Norm of current diis error: 0.68311E-04
          max. resid. norm for Fia-block=  4.493D-05 for orbital     50a    alpha
          max. resid. fock norm         =  4.540D-05 for orbital     50a    alpha
 mo-orthogonalization: Cholesky decomposition
          Delta Eig. =     0.0004667792 eV 
 
                                              current damping :  0.100
 ITERATION  ENERGY          1e-ENERGY        2e-ENERGY     RMS[dD(SAO)]   TOL
  41  -674.66549954236    -2567.5031673     1057.7910855    0.190D-06 0.679D-14
          Norm of current diis error: 0.56939E-04
          max. resid. norm for Fia-block=  2.437D-05 for orbital     50a    alpha
          max. resid. fock norm         =  2.502D-05 for orbital     54a    beta 
          Delta Eig. =     0.0002723018 eV 
 
                                              current damping :  0.100
 ITERATION  ENERGY          1e-ENERGY        2e-ENERGY     RMS[dD(SAO)]   TOL
  42  -674.66549954206    -2567.5032543     1057.7911725    0.105D-06 0.730D-14
          Norm of current diis error: 0.48815E-04
          max. resid. norm for Fia-block=  8.906D-06 for orbital     50a    alpha
          max. resid. fock norm         =  9.024D-06 for orbital     50a    alpha
          Delta Eig. =     0.0000928804 eV 

 DENSITY CONVERGED !

 
                                              current damping :  0.100
 ITERATION  ENERGY          1e-ENERGY        2e-ENERGY     RMS[dD(SAO)]   TOL
  43  -674.66549954195    -2567.5032627     1057.7911809    0.387D-07 0.538D-13
          Norm of current diis error: 0.45161E-04
          max. resid. norm for Fia-block=  5.076D-06 for orbital     50a    alpha
          max. resid. fock norm         =  5.140D-06 for orbital     50a    alpha
          Delta Eig. =     0.0000514742 eV 

 DENSITY CONVERGED !

 
                                              current damping :  0.100
 ITERATION  ENERGY          1e-ENERGY        2e-ENERGY     RMS[dD(SAO)]   TOL
  44  -674.66549954207    -2567.5032674     1057.7911856    0.232D-07 0.341D-13
          Norm of current diis error: 0.42773E-04
          max. resid. norm for Fia-block=  4.365D-06 for orbital     50a    alpha
          max. resid. fock norm         =  4.449D-06 for orbital     54a    beta 
          Delta Eig. =     0.0000441201 eV 

 DENSITY CONVERGED !

 
                                              current damping :  0.100
 ITERATION  ENERGY          1e-ENERGY        2e-ENERGY     RMS[dD(SAO)]   TOL
  45  -674.66549954221    -2567.5032732     1057.7911914    0.207D-07 0.230D-13
          Norm of current diis error: 0.40633E-04
          max. resid. norm for Fia-block=  4.107D-06 for orbital     49a    beta 
          max. resid. fock norm         =  4.108D-06 for orbital     49a    beta 
 mo-orthogonalization: Cholesky decomposition
          Delta Eig. =     0.0000327083 eV 

 DENSITY CONVERGED !

 
                                              current damping :  0.100
 ITERATION  ENERGY          1e-ENERGY        2e-ENERGY     RMS[dD(SAO)]   TOL
  46  -674.66549954235    -2567.5032781     1057.7911963    0.159D-07 0.178D-13
          Norm of current diis error: 0.38904E-04
          max. resid. norm for Fia-block=  8.061D-06 for orbital     49a    beta 
          max. resid. fock norm         =  8.064D-06 for orbital     49a    beta 
          Delta Eig. =     0.0000423075 eV 

 DENSITY CONVERGED !

 
                                              current damping :  0.100
 ITERATION  ENERGY          1e-ENERGY        2e-ENERGY     RMS[dD(SAO)]   TOL
  47  -674.66549954280    -2567.5032858     1057.7912040    0.192D-07 0.153D-13
          Norm of current diis error: 0.36341E-04
          max. resid. norm for Fia-block=  8.433D-06 for orbital     49a    beta 
          max. resid. fock norm         =  8.435D-06 for orbital     49a    beta 
          Delta Eig. =     0.0000475928 eV 

 DENSITY CONVERGED !

 
                                              current damping :  0.150
 ITERATION  ENERGY          1e-ENERGY        2e-ENERGY     RMS[dD(SAO)]   TOL
  48  -674.66549954331    -2567.5032689     1057.7911871    0.165D-07 0.153D-13
          Norm of current diis error: 0.34527E-04
          max. resid. norm for Fia-block=  7.502D-06 for orbital     46a    alpha
          max. resid. fock norm         =  7.503D-06 for orbital     46a    alpha
          Delta Eig. =     0.0000419149 eV 

 ENERGY & DENSITY CONVERGED !

 
                                              current damping :  0.200
 ITERATION  ENERGY          1e-ENERGY        2e-ENERGY     RMS[dD(SAO)]   TOL
  49  -674.66549954383    -2567.5032717     1057.7911899    0.149D-07 0.153D-13
          max. resid. norm for Fia-block=  3.385D-06 for orbital     47a    beta 
          max. resid. fock norm         =  3.385D-06 for orbital     47a    beta 

 convergence criteria satisfied after    49 iterations


                  ------------------------------------------ 
                 |  total energy      =   -674.66549954383  |
                  ------------------------------------------ 
                 :  kinetic energy    =    673.53638982443  :
                 :  potential energy  =  -1348.20188936826  :
                 :  virial theorem    =      1.99832641550  :
                 :  wavefunction norm =      1.00000000000  :
                  .......................................... 


 orbitals $uhfmo_beta  will be written to file beta

 orbitals $uhfmo_alpha  will be written to file alpha
 
 alpha: 

    irrep                 48a         49a         50a         51a         52a   
 eigenvalues H         -0.51209    -0.51139    -0.45369    -0.42795    -0.39172
            eV         -13.9349    -13.9158    -12.3457    -11.6452    -10.6594
 occupation              1.0000      1.0000      1.0000      1.0000      1.0000 

    irrep                 53a         54a         55a         56a         57a   
 eigenvalues H         -0.07570     0.07407     0.09367     0.11832     0.12560
            eV          -2.0599      2.0155      2.5489      3.2198      3.4178
 
 beta:  

    irrep                 48a         49a         50a         51a         52a   
 eigenvalues H         -0.49508    -0.49467    -0.46234    -0.43980    -0.31382
            eV         -13.4719    -13.4609    -12.5810    -11.9675     -8.5395
 occupation              1.0000      1.0000      1.0000      1.0000      1.0000 

    irrep                 53a         54a         55a         56a         57a   
 eigenvalues H         -0.05319     0.05383     0.06438     0.12105     0.13030
            eV          -1.4474      1.4647      1.7519      3.2940      3.5456
 

                                             _ _ _ 
  IRREP     alpha occ.     beta occ.      tr(D*D-D)


 a         52.00000000    52.00000000    -0.28707813

   -------------------------------------------------

   sum     52.00000000    52.00000000    -0.28707813

 <S*S>     0.57415625

 
 
 
 ==============================================================================
                           electrostatic moments
 ==============================================================================

 reference point for electrostatic moments:    0.00000   0.00000   0.00000

 
              nuc           elec       ->  total
 ------------------------------------------------------------------------------
                          charge      
 ------------------------------------------------------------------------------
         104.000000    -104.000000      -0.000000
 a-b                                    -0.000000
 
 ------------------------------------------------------------------------------
                       dipole moment  
 ------------------------------------------------------------------------------
   x       0.000000       0.000000       0.000000
   y       0.000000      -0.000001      -0.000001
   z       0.000000      -0.000000      -0.000000
 
   | dipole moment | =     0.0000 a.u. =     0.0000 debye 
 
 ------------------------------------------------------------------------------
                     quadrupole moment
 ------------------------------------------------------------------------------
  xx     813.062090    -893.686815     -80.624726
  yy    3290.961308   -3394.695300    -103.733992
  zz       0.000000     -68.030777     -68.030777
  xy       0.000000       0.000000       0.000000
  xz       0.000000       0.000000       0.000000
  yz       0.000000       0.000000       0.000000
 
     1/3  trace=     -84.129831
     anisotropy=      31.363716
 
 ==============================================================================
 


    ------------------------------------------------------------------------
         total  cpu-time :  4 hours 11 minutes and 41 seconds
         total wall-time : 11 minutes and 25 seconds
    ------------------------------------------------------------------------

   ****  dscf : all done  ****


    2019-03-03 12:12:29.638 

