 operating system is UNIX !

 ridft (c-9-331.gp.local) : TURBOMOLE V7.2 ( 21454 ) 4 Oct 2017 at 12:48:15
 Copyright (C) 2017 TURBOMOLE GmbH, Karlsruhe


    2018-05-18 15:42:14.008 



                                  r i d f t

                        DFT program with RI approximation 
                                for coulomb part 




                                                 
                                 References:     
                                                 
          TURBOMOLE:                             
              R. Ahlrichs, M. Baer, M. Haeser, H. Horn, and
              C. Koelmel
              Electronic structure calculations on workstation
              computers: the program system TURBOMOLE
              Chem. Phys. Lett. 162: 165 (1989)
          Density Functional:                              
              O. Treutler and R. Ahlrichs                      
              Efficient Molecular Numerical Integration Schemes
              J. Chem. Phys. 102: 346 (1995)                   
          Parallel Version:                                
              Performance of parallel TURBOMOLE for Density    
              Functional Calculations                          
              M. v. Arnim and R. Ahlrichs                      
              J. Comp. Chem. 19: 1746 (1998)                   
          RI-J Method:                                     
              Auxiliary Basis Sets to approximate Coulomb      
              Potentials                                       
              Chem. Phys. Lett. 240: 283 (1995)                
              K. Eichkorn, O. Treutler, H. Oehm, M. Haeser     
              and R. Ahlrichs                                  
              Chem. Phys. Lett. 242: 652 (1995)                
                                                           
              Auxiliary Basis Sets for Main Row Atoms and their
              Use to approximate Coulomb Potentials            
              K. Eichkorn, F. Weigend, O. Treutler and         
              R. Ahlrichs                                      
              Theo. Chem. Acc. 97: 119 (1997)                   
                                                           
              Accurate Coulomb-fitting basis sets for H to Rn 
              F. Weigend                                        
              Phys. Chem. Chem. Phys. 8: 1057 (2006)            
                                                           
          Multipole accelerated RI-J (MARI-J):             
              Fast evaluation of the Coulomb potential for     
              electron densities using multipole accelerated   
              resolution of identity approximation             
              M. Sierka, A. Hogekamp and R. Ahlrichs           
              J. Chem. Phys. 118: 9136 (2003)                  
          RI-JK Method:                                     
              A fully direct RI-HF algorithm: Implementation,
              optimised auxiliary basis sets, demonstration of
              accuracy and efficiency                         
              F. Weigend                                      
              Phys. Chem. Chem. Phys. 4: 4285 (2002)           
          Two-component HF and DFT with spin-orbit coupling:  
              Self-consistent treatment of spin-orbit         
              interactions with efficient Hartree-Fock and    
              density functional methods                      
              M. K. Armbruster, F. Weigend, C. van Wüllen and 
              W. Klopper                                      
              Phys. Chem. Chem. Phys. 10: 1748 (2008)         
          Relativistic all-electron 2c calculations           
              An efficient implementation of two-component    
              relativistic exact-decoupling methods for large 
              molecules                                       
              D. Peng, N. Middendorf, F. Weigend, M. Reiher   
              J. Chem. Phys. 138, 184105 (2013)               
                                         




              +--------------------------------------------------+
              |      general information about current run       |
              +--------------------------------------------------+

 
 TPSS meta-GGA functional
 exchange:    LDA + TPSS
 correlation: LDA (PW) + TPSS
 A DFT calculation using the RI-J approximation will be carried out.
 Allocatable memory for RI due to $ricore (MB):                   500


              +--------------------------------------------------+
              | Atomic coordinate, charge and isotop information |
              +--------------------------------------------------+

                    atomic coordinates            atom    charge  isotop
          1.44667126    1.64074399    1.55144806    c      6.000     0
          2.71643684    3.17475244    2.01275262    h      1.000     0
          2.33882447   -0.83684268    1.50023081    c      6.000     0
          4.30056083   -1.22555935    1.92319585    h      1.000     0
          0.70342643   -2.81292664    0.90190698    c      6.000     0
          1.39497294   -4.73580510    0.86371084    h      1.000     0
         -1.82345945   -2.31108144    0.35314887    c      6.000     0
         -3.09246025   -3.84476268   -0.10917632    h      1.000     0
         -2.71565946    0.16706233    0.40303538    c      6.000     0
         -4.67647562    0.55615048   -0.02167036    h      1.000     0
         -1.08074664    2.14299509    1.00309083    c      6.000     0
         -1.77199497    4.06614372    1.04138583    h      1.000     0
 
       center of nuclear mass  :   -0.18846498   -0.33499572    0.95210913
       center of nuclear charge:   -0.18844335   -0.33498516    0.95208010

              +--------------------------------------------------+
              |               basis set information              |
              +--------------------------------------------------+

              we will work with the 1s 3p 5d 7f 9g ... basis set
              ...i.e. with spherical basis functions...

   type   atoms  prim   cont   basis
   ---------------------------------------------------------------------------
    c        6     77     57   def2-QZVP   [7s4p3d2f1g|15s8p3d2f1g]
    h        6     33     30   def2-QZVP   [4s3p2d1f|7s3p2d1f]
   ---------------------------------------------------------------------------
   total:   12    660    522
   ---------------------------------------------------------------------------

   total number of primitive shells          :   42
   total number of contracted shells         :  162
   total number of cartesian basis functions :  642
   total number of SCF-basis functions       :  522


 integral neglect threshold       :  0.52E-13
 integral storage threshold THIZE :  0.10E-04
 integral storage threshold THIME :         5

 RI-J AUXILIARY BASIS SET information:

              we will work with the 1s 3p 5d 7f 9g ... basis set
              ...i.e. with spherical basis functions...

   type   atoms  prim   cont   basis
   ---------------------------------------------------------------------------
    c        6     70     49   def2-QZVP   [6s4p3d1f1g|12s5p4d2f1g]
    h        6     16     11   def2-QZVP   [3s1p1d|5s2p1d]
   ---------------------------------------------------------------------------
   total:   12    516    360
   ---------------------------------------------------------------------------

   total number of primitive shells          :   32
   total number of contracted shells         :  120
   total number of cartesian basis functions :  438
   total number of SCF-basis functions       :  360


 symmetry group of the molecule :   c1 

 the group has the following generators :
   c1(z)

    1 symmetry operations found

 there are 1 real representations :   a   

 maximum number of shells which are related by symmetry :  1


    mo occupation :
   irrep   mo's   occupied
    a      522       21
 
 number of basis functions   :                    522
 number of occupied orbitals :                     21
 
  
           ------------------
           density functional
           ------------------
 TPSS meta-GGA functional
 exchange:    LDA + TPSS
 correlation: LDA (PW) + TPSS

 iterations will be done with small grid
  
 spherical integration : Lebedev's spherical grid
 spherical gridsize    :                     5
    i.e. gridpoints    :                   590
 value for diffuse not defined
 radial integration    : Chebyshev 2nd kind (scaling 3)
 radial gridsize       :                     8
 integration cells     :                    12
 partition function    : becke
 partition sharpness   :                     3
  

 biggest AO integral is expected to be     5.262544080
  
           ------------------------
               RI-J - INFORMATION
           ------------------------
 Contributions to RI integral batches: 
  neglected integral batches:                  1437
  direct contribution:                         2228
  memory contribution:                  9538
 Memory core needed for (P|Q) and Cholesky      1 MByte
 Memory core minimum needed except of (P|Q)     2 MByte
 Total minimum memory core needed (sum)         3 MByte
  
 ****************************************
 Memory allocated for RI-J   432 MByte
 ****************************************
                                            

          ------------------------
          nuclear repulsion energy  :   203.677358796    
          ------------------------


         -----------------
         -S,T+V- integrals
         -----------------

 1e-integrals will be neglected if expon. factor < 0.520555E-14
 
   Difference densities algorithm switched on.
   The maximal number of linear combinations of
   difference densities is                    20 .

 DIIS switched on: error vector is FDS-SDF
 Max. Iterations for DIIS is     :   4
 DIIS matrix (see manual) 
    Scaling factor of diagonals  :  1.200
    threshold for scaling factor :  0.000

 scf convergence criterion : increment of total energy < .1000000D-08
                  and increment of one-electron energy < .1000000D-05

  MOs are in ASCII format !


 automatic virtual orbital shift switched on 
      shift if e(lumo)-e(homo) < 0.10000000    


 reading orbital data $scfmo  from file mos
 orbital characterization : expanded
 mo provided and orthogonalized by Cholesky decomposition

 DSCF restart information will be dumped onto file mos


 Starting SCF iterations

          Overall gridpoints after grid construction =         58217

 ITERATION  ENERGY          1e-ENERGY        2e-ENERGY     NORM[dD(SAO)]  TOL
   1  -231.60346790085    -704.54588011     269.26505342    0.000D+00 0.519D-13
                            Exc = -33.8177465443     Coul =  303.082799960    
                              N = 41.999971669    
                            current damping = 0.700
 
          max. resid. norm for Fia-block=  5.262D-01 for orbital      7a         
          max. resid. fock norm         =  4.793D+01 for orbital    472a         

 ITERATION  ENERGY          1e-ENERGY        2e-ENERGY     NORM[dD(SAO)]  TOL
   2  -232.22329393831    -711.54256451     275.64191178    0.129D+01 0.415D-13
                            Exc = -34.4893699350     Coul =  310.131281715    
                              N = 41.999965673    
                            current damping = 0.650
 
          Norm of current diis error:  2.9746    
          max. resid. norm for Fia-block=  1.130D-01 for orbital      5a         
          max. resid. fock norm         =  1.707D-01 for orbital    494a         

 ITERATION  ENERGY          1e-ENERGY        2e-ENERGY     NORM[dD(SAO)]  TOL
   3  -232.34562240649    -712.93387901     276.91089780    0.445D+00 0.271D-13
                            Exc = -34.6857551630     Coul =  311.596652967    
                              N = 41.999965223    
                            current damping = 0.550
 
          Norm of current diis error:  1.4307    
          max. resid. norm for Fia-block=  5.512D-02 for orbital      7a         
          max. resid. fock norm         =  6.236D-02 for orbital      7a         

 ITERATION  ENERGY          1e-ENERGY        2e-ENERGY     NORM[dD(SAO)]  TOL
   4  -232.38173467520    -714.26787865     278.20878517    0.134D+00 0.222D-13
                            Exc = -34.8239821133     Coul =  313.032767287    
                              N = 41.999961949    
                            current damping = 0.450
 
          Norm of current diis error: 0.52313    
          max. resid. norm for Fia-block=  2.095D-02 for orbital      7a         
          max. resid. fock norm         =  2.307D-02 for orbital      7a         

 ITERATION  ENERGY          1e-ENERGY        2e-ENERGY     NORM[dD(SAO)]  TOL
   5  -232.38757787996    -714.50317144     278.43823477    0.351D-01 0.200D-13
                            Exc = -34.8658008763     Coul =  313.304035641    
                              N = 41.999961313    
                            current damping = 0.300
 
          Norm of current diis error: 0.19110    
          max. resid. norm for Fia-block=  7.442D-03 for orbital      7a         
          max. resid. fock norm         =  8.406D-03 for orbital      7a         
          mo-orthogonalization: Cholesky decomposition

 ITERATION  ENERGY          1e-ENERGY        2e-ENERGY     NORM[dD(SAO)]  TOL
   6  -232.38840575026    -714.80615248     278.74038793    0.126D-01 0.190D-13
                            Exc = -34.8931367420     Coul =  313.633524676    
                              N = 41.999960453    
                            current damping = 0.150
 
          Norm of current diis error: 0.46970E-01
          max. resid. norm for Fia-block=  1.696D-03 for orbital     21a         
          max. resid. fock norm         =  2.881D-03 for orbital     74a         

 ITERATION  ENERGY          1e-ENERGY        2e-ENERGY     NORM[dD(SAO)]  TOL
   7  -232.38844828674    -714.71246212     278.64665504    0.289D-02 0.185D-13
                            Exc = -34.8901667193     Coul =  313.536821759    
                              N = 41.999960619    
                            current damping = 0.200
 
          Norm of current diis error: 0.27927E-01
          max. resid. norm for Fia-block=  6.202D-04 for orbital     12a         
          max. resid. fock norm         =  8.177D-04 for orbital    490a         

 ITERATION  ENERGY          1e-ENERGY        2e-ENERGY     NORM[dD(SAO)]  TOL
   8  -232.38846249387    -714.76746396     278.70164267    0.702D-03 0.183D-13
                            Exc = -34.8936958114     Coul =  313.595338480    
                              N = 41.999960492    
                            current damping = 0.250
 
          Norm of current diis error: 0.11798E-02
          max. resid. norm for Fia-block=  4.444D-05 for orbital     12a         
          max. resid. fock norm         =  1.341D-04 for orbital    510a         

 ITERATION  ENERGY          1e-ENERGY        2e-ENERGY     NORM[dD(SAO)]  TOL
   9  -232.38846251019    -714.76863668     278.70281537    0.166D-03 0.180D-13
                            Exc = -34.8937928168     Coul =  313.596608192    
                              N = 41.999960488    
                            current damping = 0.100
 
          Norm of current diis error: 0.89026E-03
          max. resid. norm for Fia-block=  2.443D-05 for orbital     20a         
          max. resid. fock norm         =  6.082D-05 for orbital    518a         

 ITERATION  ENERGY          1e-ENERGY        2e-ENERGY     NORM[dD(SAO)]  TOL
  10  -232.38846252377    -714.76904131     278.70321999    0.530D-04 0.180D-13
                            Exc = -34.8938295595     Coul =  313.597049552    
                              N = 41.999960487    
                            current damping = 0.050
 
          Norm of current diis error: 0.47248E-03
          max. resid. norm for Fia-block=  9.669D-06 for orbital     20a         
          max. resid. fock norm         =  2.392D-05 for orbital    518a         
          mo-orthogonalization: Cholesky decomposition

 ITERATION  ENERGY          1e-ENERGY        2e-ENERGY     NORM[dD(SAO)]  TOL
  11  -232.38846252878    -714.76892704     278.70310572    0.805D-05 0.179D-13
                            Exc = -34.8938265970     Coul =  313.596932312    
                              N = 41.999960488    
                            current damping = 0.100
 
          Norm of current diis error: 0.83864E-04
          max. resid. norm for Fia-block=  1.855D-06 for orbital     20a         
          max. resid. fock norm         =  4.287D-06 for orbital    521a         

 ITERATION  ENERGY          1e-ENERGY        2e-ENERGY     NORM[dD(SAO)]  TOL
  12  -232.38846252892    -714.76890594     278.70308461    0.232D-05 0.178D-13
                            Exc = -34.8938228152     Coul =  313.596907430    
                              N = 41.999960487    
                            current damping = 0.050
 
          Norm of current diis error: 0.18423E-04
          max. resid. norm for Fia-block=  6.074D-07 for orbital     21a         
          max. resid. fock norm         =  1.353D-06 for orbital      1a         

 ITERATION  ENERGY          1e-ENERGY        2e-ENERGY     NORM[dD(SAO)]  TOL
  13  -232.38846252891    -714.76892964     278.70310831    0.123D-05 0.177D-13
                            Exc = -34.8938251323     Coul =  313.596933447    
                              N = 41.999960487    
                            current damping = 0.100
 
          Norm of current diis error: 0.16432E-04
          max. resid. norm for Fia-block=  2.918D-07 for orbital     21a         
          max. resid. fock norm         =  7.529D-07 for orbital      4a         

 ITERATION  ENERGY          1e-ENERGY        2e-ENERGY     NORM[dD(SAO)]  TOL
  14  -232.38846252891    -714.76892427     278.70310294    0.923D-07 0.177D-13
                            Exc = -34.8938248257     Coul =  313.596927769    
                              N = 41.999960487    
                            current damping = 0.150
 
          Norm of current diis error: 0.22323E-05
          max. resid. norm for Fia-block=  5.295D-08 for orbital     21a         
          max. resid. fock norm         =  8.044D-08 for orbital    431a         

 ITERATION  ENERGY          1e-ENERGY        2e-ENERGY     NORM[dD(SAO)]  TOL
  15  -232.38846252893    -714.76892002     278.70309870    0.322D-07 0.177D-13
                            Exc = -34.8938244271     Coul =  313.596923125    
                              N = 41.999960487    
                            current damping = 0.050
 
          Norm of current diis error: 0.89187E-06
          max. resid. norm for Fia-block=  2.529D-08 for orbital     20a         
          max. resid. fock norm         =  5.940D-08 for orbital    521a         
          mo-orthogonalization: Cholesky decomposition

 ENERGY CONVERGED !

          Overall gridpoints after grid construction =        188591

 ITERATION  ENERGY          1e-ENERGY        2e-ENERGY     NORM[dD(SAO)]  TOL
  16  -232.38835304400    -714.76892121     278.70320937    0.250D-07 0.176D-13
                            Exc = -34.8937150124     Coul =  313.596924379    
                              N = 42.000001445    
                            current damping = 0.100
 
          Norm of current diis error: 0.44929E-06
          max. resid. norm for Fia-block=  7.557D-09 for orbital     20a         
          max. resid. fock norm         =  1.650D-08 for orbital    521a         

 End of SCF iterations

   convergence criteria satisfied after    16 iterations


                  ------------------------------------------ 
                 |  total energy      =   -232.38835304400  |
                  ------------------------------------------ 
                 :  kinetic energy    =    231.31843496720  :
                 :  potential energy  =   -463.70678801120  :
                 :  virial theorem    =      1.99539599097  :
                 :  wavefunction norm =      1.00000000000  :
                  .......................................... 


 <geterg> : there is no data group $energy 


 <skperg> : $end is missing 


 orbitals $scfmo  will be written to file mos

    irrep                 17a         18a         19a         20a         21a   
 eigenvalues H         -0.33448    -0.30701    -0.30699    -0.23125    -0.23119
            eV          -9.1017     -8.3542     -8.3538     -6.2927     -6.2911
 occupation              2.0000      2.0000      2.0000      2.0000      2.0000 

    irrep                 22a         23a         24a         25a         26a   
 eigenvalues H         -0.03696    -0.03694     0.01526     0.04024     0.04025
            eV          -1.0057     -1.0051      0.4153      1.0950      1.0953
 
 
 
 
 ==============================================================================
                           electrostatic moments
 ==============================================================================

 reference point for electrostatic moments:    0.00000   0.00000   0.00000

 
              nuc           elec       ->  total
 ------------------------------------------------------------------------------
                          charge      
 ------------------------------------------------------------------------------
          42.000000     -42.000000       0.000000
 
 ------------------------------------------------------------------------------
                       dipole moment  
 ------------------------------------------------------------------------------
   x      -7.914621       7.914668       0.000047
   y     -14.069377      14.069375      -0.000001
   z      39.987364     -39.987766      -0.000402
 
   | dipole moment | =     0.0004 a.u. =     0.0010 debye 
 
 ------------------------------------------------------------------------------
                     quadrupole moment
 ------------------------------------------------------------------------------
  xx     181.946045    -206.111981     -24.165936
  yy     193.231955    -217.169636     -23.937682
  zz      50.179501     -79.152033     -28.972532
  xy      -1.876255       1.748286      -0.127969
  xz      34.927366     -33.720484       1.206883
  yz       5.507976      -4.972849       0.535127
 
     1/3  trace=     -25.692050
     anisotropy=       5.434197
 
 ==============================================================================
 


    ------------------------------------------------------------------------
         total  cpu-time :  3 minutes and 49 seconds
         total wall-time :  6 minutes and 53 seconds
    ------------------------------------------------------------------------

   ****  ridft : all done  ****


    2018-05-18 15:49:07.280 

