
 eiger (gplogin2.gp.local) : TURBOMOLE V7.3 ( 22118 ) 1 Jul 2018 at 20:38:15
 Copyright (C) 2018 TURBOMOLE GmbH, Karlsruhe


    2019-05-14 12:32:32.010 

                                                                                
  
Total energy =   -825.2956179961 H =    -22457.4491795 eV
 
 HOMO-LUMO Separation
   HOMO:    58.    58 a     -0.35864559 H =     -9.75925 eV
   LUMO:    59.    59 a     +0.07664674 H =     +2.08567 eV
   Gap :                    +0.43529233 H =    +11.84491 eV
 
Number of MOs=   1120, Electrons=    116.00, Symmetry: c1   
 
   Nr.   Orbital    Occupation       Energy
   75.    75 a                     +0.263891 H =        +7.181 eV
   74.    74 a                     +0.238422 H =        +6.488 eV
   73.    73 a                     +0.237946 H =        +6.475 eV
   72.    72 a                     +0.223393 H =        +6.079 eV
   71.    71 a                     +0.195872 H =        +5.330 eV
   70.    70 a                     +0.179605 H =        +4.887 eV
   69.    69 a                     +0.179511 H =        +4.885 eV
   68.    68 a                     +0.165706 H =        +4.509 eV
   67.    67 a                     +0.153013 H =        +4.164 eV
   66.    66 a                     +0.148705 H =        +4.046 eV
   65.    65 a                     +0.147944 H =        +4.026 eV
   64.    64 a                     +0.143734 H =        +3.911 eV
   63.    63 a                     +0.126688 H =        +3.447 eV
   62.    62 a                     +0.102493 H =        +2.789 eV
   61.    61 a                     +0.091509 H =        +2.490 eV
   60.    60 a                     +0.088913 H =        +2.419 eV
   59.    59 a                     +0.076647 H =        +2.086 eV
   58.    58 a        2.000        -0.358646 H =        -9.759 eV
   57.    57 a        2.000        -0.382615 H =       -10.411 eV
   56.    56 a        2.000        -0.440169 H =       -11.978 eV
   55.    55 a        2.000        -0.442303 H =       -12.036 eV
   54.    54 a        2.000        -0.453685 H =       -12.345 eV
   53.    53 a        2.000        -0.454994 H =       -12.381 eV
   52.    52 a        2.000        -0.484184 H =       -13.175 eV
   51.    51 a        2.000        -0.485952 H =       -13.223 eV
   50.    50 a        2.000        -0.516273 H =       -14.049 eV
   49.    49 a        2.000        -0.533101 H =       -14.506 eV
   48.    48 a        2.000        -0.567175 H =       -15.434 eV
   47.    47 a        2.000        -0.587384 H =       -15.984 eV
   46.    46 a        2.000        -0.603493 H =       -16.422 eV
   45.    45 a        2.000        -0.604139 H =       -16.439 eV
   44.    44 a        2.000        -0.616990 H =       -16.789 eV
   43.    43 a        2.000        -0.617006 H =       -16.790 eV


    ------------------------------------------------------------------------
         total  cpu-time :   0.55 seconds
         total wall-time :   0.56 seconds
    ------------------------------------------------------------------------

   ****  eiger : all done  ****


    2019-05-14 12:32:32.556 

