Using Slurm to start processes with PMI2
STARTING ridft ON 8 PROCESSORS!
RUNNING PROGRAM /beegfs/modfac/apps/TURBOMOLE/7.0_intel_GA/bin/em64t-unknown-linux-gnu_mpi/ridft_mpi.
PLEASE WAIT UNTIL ridft HAS FINISHED.
Look for the output in slave1.output.
  this is node-proc. number 1 running on node c-9-414.local
  the total number of node-proc. spawned is            8
  parallel platform: MPP, or cluster with fast interconnect

 ridft (c-9-414.local) : TURBOMOLE V7.0.2( ) 15 Jan 2016 at 17:47:42
 Copyright (C) 2016 TURBOMOLE GmbH, Karlsruhe


    2017-11-07 21:43:04.198 



                                  r i d f t

                        DFT program with RI approximation 
                                for coulomb part 




                                                 
                                 References:     
                                                 
          TURBOMOLE:                             
              R. Ahlrichs, M. Baer, M. Haeser, H. Horn, and
              C. Koelmel
              Electronic structure calculations on workstation
              computers: the program system TURBOMOLE
              Chem. Phys. Lett. 162: 165 (1989)
          Density Functional:                              
              O. Treutler and R. Ahlrichs                      
              Efficient Molecular Numerical Integration Schemes
              J. Chem. Phys. 102: 346 (1995)                   
          Parallel Version:                                
              Performance of parallel TURBOMOLE for Density    
              Functional Calculations                          
              M. v. Arnim and R. Ahlrichs                      
              J. Comp. Chem. 19: 1746 (1998)                   
          RI-J Method:                                     
              Auxiliary Basis Sets to approximate Coulomb      
              Potentials                                       
              Chem. Phys. Lett. 240: 283 (1995)                
              K. Eichkorn, O. Treutler, H. Oehm, M. Haeser     
              and R. Ahlrichs                                  
              Chem. Phys. Lett. 242: 652 (1995)                
                                                           
              Auxiliary Basis Sets for Main Row Atoms and their
              Use to approximate Coulomb Potentials            
              K. Eichkorn, F. Weigend, O. Treutler and         
              R. Ahlrichs                                      
              Theo. Chem. Acc. 97: 119 (1997)                   
                                                           
              Accurate Coulomb-fitting basis sets for H to Rn 
              F. Weigend                                        
              Phys. Chem. Chem. Phys. 8: 1057 (2006)            
                                                           
          Multipole accelerated RI-J (MARI-J):             
              Fast evaluation of the Coulomb potential for     
              electron densities using multipole accelerated   
              resolution of identity approximation             
              M. Sierka, A. Hogekamp and R. Ahlrichs           
              J. Chem. Phys. 118: 9136 (2003)                  
          RI-JK Method:                                     
              A fully direct RI-HF algorithm: Implementation,
              optimised auxiliary basis sets, demonstration of
              accuracy and efficiency                         
              F. Weigend                                      
              Phys. Chem. Chem. Phys. 4: 4285 (2002)           
          Two-component HF and DFT with spin-orbit coupling:  
              Self-consistent treatment of spin-orbit         
              interactions with efficient Hartree-Fock and    
              density functional methods                      
              M. K. Armbruster, F. Weigend, C. van Wüllen and 
              W. Klopper                                      
              Phys. Chem. Chem. Phys. 10: 1748 (2008)         
          Relativistic all-electron 2c calculations           
              An efficient implementation of two-component    
              relativistic exact-decoupling methods for large 
              molecules                                       
              D. Peng, N. Middendorf, F. Weigend, M. Reiher   
              J. Chem. Phys. 138, 184105 (2013)               
                                         


 


              +--------------------------------------------------+
              |      general information about current run       |
              +--------------------------------------------------+

 

 SCF run will be profiled !


 DENSITY CONVERGENCE CHECK SWITCHED ON !
 SCF CONVERGENCE IF RMS(delta[D]) <     0.1000000000E-06

 TPSS meta-GGA functional
 exchange:    LDA + TPSS
 correlation: LDA (PW) + TPSS
 A DFT calculation using the RI-J approximation will be carried out.
 Allocatable memory for RI due to $ricore (MB):       12000


              +--------------------------------------------------+
              | Atomic coordinate, charge and isotop information |
              +--------------------------------------------------+

                    atomic coordinates            atom    charge  isotop
          1.35323061   -1.83487764    8.35180463    c      6.000     0
          1.33432773   -1.84971329    5.72023982    c      6.000     0
         -0.05038535   -0.03022455    9.66981846    c      6.000     0
         -0.02339181   -0.01634270    4.38825803    c      6.000     0
         -1.44026825    1.78151055    8.34706624    c      6.000     0
         -1.39448303    1.81020133    5.71590596    c      6.000     0
         -0.01002541   -0.00957737    1.54688684    c      6.000     0
         -0.71244440    1.99678102    0.43861828    o      8.000     0
          0.70197594   -2.01005326    0.43554592    o      8.000     0
          2.45749504   -3.22647612    9.38068689    h      1.000     0
          2.37404005   -3.25582621    4.65113501    h      1.000     0
         -0.06095465   -0.03560796   11.72386454    h      1.000     0
         -2.55457623    3.16809886    9.37191360    h      1.000     0
         -2.42389050    3.22158305    4.64376839    h      1.000     0
 
       center of nuclear mass  :   -0.02602080   -0.01759909    4.78416197
       center of nuclear charge:   -0.02662868   -0.01791347    4.90800892

              +--------------------------------------------------+
              |               basis set information              |
              +--------------------------------------------------+

              we will work with the 1s 3p 5d 7f 9g ... basis set
              ...i.e. with spherical basis functions...

   type   atoms  prim   cont   basis
   ---------------------------------------------------------------------------
    c        7     77     55   cc-pVQZ   [5s4p3d2f1g|21s6p3d2f1g]
    o        2     77     55   cc-pVQZ   [5s4p3d2f1g|21s6p3d2f1g]
    h        5     32     30   cc-pVQZ   [4s3p2d1f|6s3p2d1f]
   ---------------------------------------------------------------------------
   total:   14    853    645
   ---------------------------------------------------------------------------

   total number of primitive shells          :   78
   total number of contracted shells         :  185
   total number of cartesian basis functions :  805
   total number of SCF-basis functions       :  645


 integral neglect threshold       :  0.41E-13
 integral storage threshold THIZE :  0.10E-04
 integral storage threshold THIME :         5

 RI-J AUXILIARY BASIS SET information:

              we will work with the 1s 3p 5d 7f 9g ... basis set
              ...i.e. with spherical basis functions...

   type   atoms  prim   cont   basis
   ---------------------------------------------------------------------------
    c        7     70     49   cc-pVQZ   [6s4p3d1f1g|12s5p4d2f1g]
    o        2     70     49   cc-pVQZ   [6s4p3d1f1g|12s5p4d2f1g]
    h        5     16     11   cc-pVQZ   [3s1p1d|5s2p1d]
   ---------------------------------------------------------------------------
   total:   14    710    496
   ---------------------------------------------------------------------------

   total number of primitive shells          :   56
   total number of contracted shells         :  160
   total number of cartesian basis functions :  609
   total number of SCF-basis functions       :  496


 symmetry group of the molecule :   c1 

 the group has the following generators :
   c1(z)

    1 symmetry operations found

 there are 1 real representations :   a   

 maximum number of shells which are related by symmetry :  1


    mo occupation :
   irrep   mo's   occupied
    a      645       32
 
 number of basis functions   :          645
 number of occupied orbitals :           32
 
  
           ------------------
           density functional
           ------------------
 TPSS meta-GGA functional
 exchange:    LDA + TPSS
 correlation: LDA (PW) + TPSS
 grinp -> nfun, dfgga, dfhybrid 
           5 F F
 iterations will be done with small grid
  
 spherical integration : Lebedev's spherical grid
 spherical gridsize    :           5
    i.e. gridpoints    :         590
 value for diffuse not defined
 radial integration    : Chebyshev 2nd kind (scaling 3)
 radial gridsize       :           8
 integration cells     :          14
 partition function    : becke
 partition sharpness   :           3
  

 <rddim> : input of entry tasksize
           from data group '$pardft' failed !

               Default values taken

 <rddim> : input of entry memdiv
           from data group '$pardft' failed !

               Default values taken
  RIDFT: memory allocation for DFT gridpoints
  MEMORY is divided by 1 as DEFAULT
 Each node can hold at most  the            1 -th part
 of the gridpoints    

 biggest AO integral is expected to be     4.785886462
  
           ------------------------
               RI-J - INFORMATION
           ------------------------
 
 
 **************************************************
 *      MEMORY ALLOCATION FOR PARALLEL RI-DFT     *
 **************************************************
 
 
MEMORY FOR (MU NU/ ALPHA), SEQUENTIAL RUN              11998 MByte
 
            DIFFERENCE IN MEMORY NEED:       DIAG./SLAVE  
 
      TOTAL DIFFERENCE :                     19 MByte
 
      difference in xcore:                    3 MByte
      difference in fatmat:                   6 MByte
      getcor calls skipped by slaves:        12 MByte
 
 
           Integral memory available for diagonal.     11998 MByte
 
           Integral memory available for slave             0 MByte
 
         MEMORY FOR (MU NU/ ALPHA) ON DIAGONALIZER     11998 MByte
 
         MEMORY FOR (MU NU/ ALPHA) ON ONE SLAVE            0 MByte
 
         TOTAL MEMORY FOR (MU NU/ ALPHA),ALL NODES     11998 MByte
 
 Contributions to RI integral batches: 
  neglected integral batches:        2974
  direct contribution:                  0
  memory contribution:       14231
 Memory core needed for (P|Q) and Cholesky      2 MByte
 Memory core minimum needed except of (P|Q)     3 MByte
 Total minimum memory core needed (sum)         5 MByte
  
 ****************************************
 Memory allocated for RI-J 12003 MByte
 ****************************************
                                            

          ------------------------
          nuclear repulsion energy  :   392.177198517    
          ------------------------

 
          -----------------
          -S integrals
          -----------------

 1e-integrals will be neglected if expon. factor < 0.415150E-14
 
          -----------------
          -T+V integrals
          -----------------

 1e-integrals will be neglected if expon. factor < 0.415150E-14
 Difference densities >>NOT<< switched on in parallel ridft!

 automatic virtual orbital shift switched on 
      shift if e(lumo)-e(homo) < 0.10000000    


 DIIS switched on: error vector is FDS-SDF
 Max. Iterations for DIIS is     :   4
 DIIS matrix (see manual) 
    Scaling factor of diagonals  :  1.200
    threshold for scaling factor :  0.000

 scf convergence criterion : increment of total energy < .1000000D-08
                  and increment of one-electron energy < .1000000D-05


 <geterg> : there is no data group $energy 

  MOs are in ASCII format !


 reading orbital data $scfmo  from file mos . 

 orbital characterization : expanded
 
 mo provided and orthogonalized by Cholesky decomposition

 DSCF restart information will be dumped onto file mos


 Starting SCF iterations


 ITERATION  ENERGY          1e-ENERGY        2e-ENERGY     RMS[dD(SAO)]   TOL
   1  -418.80059247799    -1350.5586733     539.58088227    0.000D+00 0.414D-13
                            Exc = -56.9655375538     Coul =  596.546419819    
                              N = 63.999929765    
                            current damping = 0.700
 
          max. resid. norm for Fia-block=  4.133D-01 for orbital     20a         
          max. resid. fock norm         =  1.136D+01 for orbital    561a         

 ITERATION  ENERGY          1e-ENERGY        2e-ENERGY     RMS[dD(SAO)]   TOL
   2  -420.23634627771    -1357.0283485     544.61480370    0.842D-02 0.414D-13
                            Exc = -57.0975489924     Coul =  601.712352688    
                              N = 63.999946336    
                            current damping = 0.650
 
          Norm of current diis error:  3.2059    
          max. resid. norm for Fia-block=  1.608D-01 for orbital      1a         
          max. resid. fock norm         =  2.962D-01 for orbital    629a         

 ITERATION  ENERGY          1e-ENERGY        2e-ENERGY     RMS[dD(SAO)]   TOL
   3  -420.43655236976    -1359.5143576     546.90060670    0.413D-02 0.414D-13
                            Exc = -57.3997149341     Coul =  604.300321630    
                              N = 63.999954761    
                            current damping = 0.550
 
          Norm of current diis error:  1.5499    
          max. resid. norm for Fia-block=  6.139D-02 for orbital      1a         
          max. resid. fock norm         =  8.452D-02 for orbital    552a         

 ITERATION  ENERGY          1e-ENERGY        2e-ENERGY     RMS[dD(SAO)]   TOL
   4  -420.50249910199    -1359.3739577     546.69426005    0.340D-02 0.414D-13
                            Exc = -57.3142548350     Coul =  604.008514886    
                              N = 63.999959493    
                            current damping = 0.600
 
          Norm of current diis error: 0.60411    
          max. resid. norm for Fia-block=  3.355D-02 for orbital     10a         
          max. resid. fock norm         =  6.308D-02 for orbital    596a         

 ITERATION  ENERGY          1e-ENERGY        2e-ENERGY     RMS[dD(SAO)]   TOL
   5  -420.51149795669    -1360.0471986     547.35850214    0.152D-02 0.414D-13
                            Exc = -57.4256498080     Coul =  604.784151947    
                              N = 63.999961744    
                            current damping = 0.650
 
          Norm of current diis error: 0.30874    
          max. resid. norm for Fia-block=  8.899D-03 for orbital     29a         
          max. resid. fock norm         =  1.846D-02 for orbital    628a         
          mo-orthogonalization: Cholesky decomposition

 ITERATION  ENERGY          1e-ENERGY        2e-ENERGY     RMS[dD(SAO)]   TOL
   6  -420.51422874630    -1360.1303179     547.43889067    0.104D-02 0.414D-13
                            Exc = -57.4126292370     Coul =  604.851519911    
                              N = 63.999962651    
                            current damping = 0.500
 
          Norm of current diis error: 0.10742    
          max. resid. norm for Fia-block=  4.167D-03 for orbital     29a         
          max. resid. fock norm         =  6.567D-03 for orbital    629a         

 ITERATION  ENERGY          1e-ENERGY        2e-ENERGY     RMS[dD(SAO)]   TOL
   7  -420.51455706013    -1359.9786121     547.28685654    0.663D-03 0.414D-13
                            Exc = -57.4025379019     Coul =  604.689394444    
                              N = 63.999963005    
                            current damping = 0.550
 
          Norm of current diis error: 0.65462E-01
          max. resid. norm for Fia-block=  2.069D-03 for orbital     10a         
          max. resid. fock norm         =  4.929D-03 for orbital    628a         

 ITERATION  ENERGY          1e-ENERGY        2e-ENERGY     RMS[dD(SAO)]   TOL
   8  -420.51467179429    -1360.0511022     547.35923190    0.842D-04 0.414D-13
                            Exc = -57.4100561681     Coul =  604.769288067    
                              N = 63.999963168    
                            current damping = 0.600
 
          Norm of current diis error: 0.13219E-01
          max. resid. norm for Fia-block=  5.961D-04 for orbital     10a         
          max. resid. fock norm         =  1.638D-03 for orbital    628a         

 ITERATION  ENERGY          1e-ENERGY        2e-ENERGY     RMS[dD(SAO)]   TOL
   9  -420.51467687795    -1360.0859340     547.39405862    0.310D-04 0.414D-13
                            Exc = -57.4128176862     Coul =  604.806876302    
                              N = 63.999963240    
                            current damping = 0.450
 
          Norm of current diis error: 0.53960E-02
          max. resid. norm for Fia-block=  2.817D-04 for orbital     31a         
          max. resid. fock norm         =  3.254D-04 for orbital    628a         

 ITERATION  ENERGY          1e-ENERGY        2e-ENERGY     RMS[dD(SAO)]   TOL
  10  -420.51467745306    -1360.0739044     547.38202840    0.418D-04 0.414D-13
                            Exc = -57.4113559062     Coul =  604.793384303    
                              N = 63.999963259    
                            current damping = 0.500
 
          Norm of current diis error: 0.46050E-02
          max. resid. norm for Fia-block=  1.498D-04 for orbital     30a         
          max. resid. fock norm         =  2.746D-04 for orbital    628a         
          mo-orthogonalization: Cholesky decomposition

 ITERATION  ENERGY          1e-ENERGY        2e-ENERGY     RMS[dD(SAO)]   TOL
  11  -420.51467790927    -1360.0723791     547.38050271    0.578D-05 0.414D-13
                            Exc = -57.4118234074     Coul =  604.792326116    
                              N = 63.999963266    
                            current damping = 0.350
 
          Norm of current diis error: 0.23230E-02
          max. resid. norm for Fia-block=  7.080D-05 for orbital     30a         
          max. resid. fock norm         =  1.781D-04 for orbital    592a         

 ITERATION  ENERGY          1e-ENERGY        2e-ENERGY     RMS[dD(SAO)]   TOL
  12  -420.51467798841    -1360.0766079     547.38473136    0.356D-05 0.414D-13
                            Exc = -57.4121370280     Coul =  604.796868387    
                              N = 63.999963269    
                            current damping = 0.400
 
          Norm of current diis error: 0.15898E-02
          max. resid. norm for Fia-block=  5.005D-05 for orbital     30a         
          max. resid. fock norm         =  9.475D-05 for orbital    644a         

 ITERATION  ENERGY          1e-ENERGY        2e-ENERGY     RMS[dD(SAO)]   TOL
  13  -420.51467805098    -1360.0771742     547.38529758    0.261D-05 0.414D-13
                            Exc = -57.4120532310     Coul =  604.797350813    
                              N = 63.999963271    
                            current damping = 0.250
 
          Norm of current diis error: 0.66885E-03
          max. resid. norm for Fia-block=  2.642D-05 for orbital     30a         
          max. resid. fock norm         =  5.968D-05 for orbital    644a         

 ITERATION  ENERGY          1e-ENERGY        2e-ENERGY     RMS[dD(SAO)]   TOL
  14  -420.51467805616    -1360.0763221     547.38444552    0.126D-05 0.414D-13
                            Exc = -57.4120289549     Coul =  604.796474473    
                              N = 63.999963271    
                            current damping = 0.300
 
          Norm of current diis error: 0.49963E-03
          max. resid. norm for Fia-block=  1.385D-05 for orbital     30a         
          max. resid. fock norm         =  3.216D-05 for orbital    644a         

 ITERATION  ENERGY          1e-ENERGY        2e-ENERGY     RMS[dD(SAO)]   TOL
  15  -420.51467806361    -1360.0761833     547.38430671    0.531D-06 0.414D-13
                            Exc = -57.4120148961     Coul =  604.796321606    
                              N = 63.999963271    
                            current damping = 0.150
 
          Norm of current diis error: 0.95635E-04
          max. resid. norm for Fia-block=  3.077D-06 for orbital     29a         
          max. resid. fock norm         =  7.508D-06 for orbital    642a         
          mo-orthogonalization: Cholesky decomposition

 ITERATION  ENERGY          1e-ENERGY        2e-ENERGY     RMS[dD(SAO)]   TOL
  16  -420.51467806364    -1360.0763251     547.38444850    0.211D-06 0.414D-13
                            Exc = -57.4120337676     Coul =  604.796482272    
                              N = 63.999963272    
                            current damping = 0.200
 
          Norm of current diis error: 0.90452E-04
          max. resid. norm for Fia-block=  1.831D-06 for orbital     29a         
          max. resid. fock norm         =  4.374D-06 for orbital    642a         

 DENSITY CONVERGED !


 ITERATION  ENERGY          1e-ENERGY        2e-ENERGY     RMS[dD(SAO)]   TOL
  17  -420.51467806378    -1360.0763606     547.38448402    0.723D-07 0.414D-13
                            Exc = -57.4120289775     Coul =  604.796512995    
                              N = 63.999963272    
                            current damping = 0.050
 
          Norm of current diis error: 0.43418E-04
          max. resid. norm for Fia-block=  1.330D-06 for orbital     30a         
          max. resid. fock norm         =  2.977D-06 for orbital    644a         
          irrep a   : virtual orbitals shifted by    0.00865

 DENSITY CONVERGED !


 ITERATION  ENERGY          1e-ENERGY        2e-ENERGY     RMS[dD(SAO)]   TOL
  18  -420.51467806382    -1360.0763132     547.38443659    0.850D-07 0.414D-13
                            Exc = -57.4120260848     Coul =  604.796462672    
                              N = 63.999963272    
                            current damping = 0.100
 
          Norm of current diis error: 0.30497E-04
          max. resid. norm for Fia-block=  8.029D-07 for orbital     30a         
          max. resid. fock norm         =  1.804D-06 for orbital    644a         
          irrep a   : virtual orbitals shifted by    0.00430

 DENSITY CONVERGED !


 ITERATION  ENERGY          1e-ENERGY        2e-ENERGY     RMS[dD(SAO)]   TOL
  19  -420.51467806384    -1360.0763047     547.38442809    0.386D-07 0.414D-13
                            Exc = -57.4120270623     Coul =  604.796455148    
                              N = 63.999963272    
                            current damping = 0.050
 
          Norm of current diis error: 0.11292E-04
          max. resid. norm for Fia-block=  4.496D-07 for orbital     30a         
          max. resid. fock norm         =  1.025D-06 for orbital    644a         
          irrep a   : virtual orbitals shifted by    0.00865

 ENERGY & DENSITY CONVERGED !


 ITERATION  ENERGY          1e-ENERGY        2e-ENERGY     RMS[dD(SAO)]   TOL
  20  -420.51453551898    -1360.0763127     547.38457867    0.200D-07 0.414D-13
                            Exc = -57.4118838149     Coul =  604.796462484    
                              N = 63.999992857    
                            current damping = 0.100
 
          Norm of current diis error: 0.12567E-04
          max. resid. norm for Fia-block=  2.336D-07 for orbital     30a         
          max. resid. fock norm         =  5.714D-07 for orbital    644a         

 End of SCF iterations

   convergence criteria satisfied after   20 iterations


                  ------------------------------------------ 
                 |  total energy      =   -420.51453551898  |
                  ------------------------------------------ 
                 :  kinetic energy    =    418.85643791207  :
                 :  potential energy  =   -839.37097343105  :
                 :  virial theorem    =      1.99605697909  :
                 :  wavefunction norm =      1.00000000000  :
                  .......................................... 


 <geterg> : there is no data group $energy 


 <skperg> : $end is missing 


 orbitals $scfmo  will be written to file mos

    irrep                 28a         29a         30a         31a         32a   
 eigenvalues H         -0.09747    -0.08259    -0.02178    -0.01691     0.00427
            eV          -2.6523     -2.2474     -0.5925     -0.4603      0.1161
 occupation              2.0000      2.0000      2.0000      2.0000      2.0000 

    irrep                 33a         34a         35a         36a         37a   
 eigenvalues H          0.09127     0.09980     0.12824     0.15447     0.17193
            eV           2.4835      2.7157      3.4896      4.2033      4.6785
 

    !!!!!!!!!!!!!!!!!!!!!!!!!!!!!!!!!!!!!!!!!!!!!!!!!!!!!!!!!!!!!!!!!!!!!!!
    !                                                                     !
    ! WARNING : ORBITAL ENERGIES SHOULD BE NEGATIVE FOR OCCUPIED ORBITALS !
    !                                                                     !
    !      orbital energy (   0.00427) of occupied MO  32a    is > 0      !
    !!!!!!!!!!!!!!!!!!!!!!!!!!!!!!!!!!!!!!!!!!!!!!!!!!!!!!!!!!!!!!!!!!!!!!!

 
 ! grave: sending quit signal to master process
 
 
 
 
 ==============================================================================
                           electrostatic moments
 ==============================================================================

 reference point for electrostatic moments:    0.00000   0.00000   0.00000

 
              nuc           elec       ->  total
 ------------------------------------------------------------------------------
                          charge      
 ------------------------------------------------------------------------------
          63.000000     -64.000000      -1.000000
 
 ------------------------------------------------------------------------------
                       dipole moment  
 ------------------------------------------------------------------------------
   x      -1.677607       1.688056       0.010449
   y      -1.128548       1.137289       0.008740
   z     309.204562    -310.681319      -1.476757
 
   | dipole moment | =     1.4768 a.u. =     3.7537 debye 
 
 ------------------------------------------------------------------------------
                     quadrupole moment
 ------------------------------------------------------------------------------
  xx      77.885779    -119.029370     -41.143591
  yy     185.087434    -230.444504     -45.357070
  zz    2279.377001   -2332.446541     -53.069540
  xy    -114.462790     114.824933       0.362143
  xz     -11.852078      11.914071       0.061994
  yz      -7.573923       7.603385       0.029462
 
     1/3  trace=     -46.523400
     anisotropy=      10.494737
 
 ==============================================================================
 

    ridft profiling
  --------------------------------------------------------------------
             module   cpu total (s)       %  wall total (s)       %

               RIDFT           144.4  100.00           144.4  100.00
         Ridft_b_scf             3.6    2.47             3.6    2.48
        b_scf_prelim             0.0    0.00             0.0    0.00
        b_scf_molinp             0.0    0.00             0.0    0.01
         b_scf_init0             0.0    0.00             0.0    0.00
        b_scf_auxbas             0.0    0.00             0.0    0.00
      b_scf_symmetry             0.0    0.00             0.0    0.00
         b_scf_cosmo             0.0    0.00             0.0    0.00
        b_scf_params             0.4    0.28             0.4    0.28
          b_scf_ri-j             2.8    1.96             2.8    1.96
    b_scf_ri-j_auxpq             2.8    1.96             2.8    1.96
     ri-j_auxpq_chol             0.0    0.01             0.0    0.01
         b_scf_1elec             0.1    0.07             0.1    0.07
       b_scf_moinput             0.2    0.16             0.2    0.16
     moinput_orthmos             0.2    0.15             0.2    0.15
    b_scf_dft-dstmax             0.0    0.00             0.0    0.00
           Ridft_scf           140.8   97.50           140.8   97.48
          Scf_b_loop             0.0    0.00             0.0    0.00
                noga             0.0    0.00             0.0    0.00
            Scf_loop           140.6   97.38           140.6   97.37
     scf_loop_mkdmat             0.2    0.14             0.2    0.14
       scf_loop_ri-j             6.0    4.14             6.0    4.13
      parlp1.bc.dens             1.0    0.71             1.0    0.71
        parlp1.gs.gp             0.0    0.00             0.0    0.00
        parlp2.bc.gq             0.0    0.00             0.0    0.00
        scf_loop_dft           127.1   88.00           127.1   87.98
      pardft.bc.dens             0.0    0.00             0.0    0.00
        dft_grid_con             0.1    0.07             0.1    0.08
          dft_xcmrhf           125.9   87.18           125.9   87.16
          dft_getval             4.8    3.35             4.9    3.36
          funct2 dst             0.1    0.06             0.1    0.06
      funct2 f2loop1             1.5    1.02             1.5    1.04
      funct2 f2loop2             1.6    1.10             1.6    1.12
          funct2 s+c             1.5    1.05             1.5    1.05
        funct2 cmf_2             1.3    0.88             1.3    0.91
          dft_mkdens            56.5   39.13            56.5   39.11
        dft_mgga-fun             0.4    0.29             0.4    0.27
          dft_mkfock            64.0   44.29            64.0   44.30
     pardft.red.fock             9.2    6.38             9.2    6.37
     scf_loop_energy             0.0    0.01             0.0    0.00
     scf_loop_mkfock             0.0    0.00             0.0    0.00
       scf_loop_diis             1.2    0.82             1.2    0.81
       scf_loop_diag             3.2    2.20             3.2    2.20
         diag_tritrn             0.5    0.37             0.5    0.37
          diag_rdiag             2.6    1.82             2.6    1.82
     scf_loop_modump             2.7    1.86             2.7    1.86
      scf_loop_ortho             0.2    0.17             0.3    0.17
          Scf_a_loop             0.2    0.11             0.2    0.11
         Ridft_a_scf             0.0    0.03             0.1    0.04
         a_scf_fanal             0.0    0.02             0.0    0.03
 


    ------------------------------------------------------------------------
         total  cpu-time :  2 minutes and 25 seconds
         total wall-time :  2 minutes and 25 seconds
    ------------------------------------------------------------------------


   ****  ridft : all done  ****


    2017-11-07 21:45:29.039 

