
 eiger (gplogin3.local) : TURBOMOLE V7.2 ( 21285 ) 30 Jun 2017 at 11:51:10
 Copyright (C) 2017 TURBOMOLE GmbH, Karlsruhe


    2017-11-13 08:00:21.249 

                                                                                
  
 HOMO-LUMO Separation
   HOMO:    37.    37 a     -0.15510542 H =     -4.22064 eV
   LUMO:    38.    38 a     -0.09973650 H =     -2.71397 eV
   Gap :                    +0.05536892 H =     +1.50667 eV
 
Number of MOs=   2866, Electrons=     74.00, Symmetry: c1   
 
   Nr.   Orbital    Occupation       Energy
   54.    54 a                     +0.064751 H =        +1.762 eV
   53.    53 a                     +0.054828 H =        +1.492 eV
   52.    52 a                     +0.053807 H =        +1.464 eV
   51.    51 a                     +0.052796 H =        +1.437 eV
   50.    50 a                     +0.047739 H =        +1.299 eV
   49.    49 a                     +0.043852 H =        +1.193 eV
   48.    48 a                     +0.041315 H =        +1.124 eV
   47.    47 a                     +0.034834 H =        +0.948 eV
   46.    46 a                     +0.030934 H =        +0.842 eV
   45.    45 a                     +0.026330 H =        +0.716 eV
   44.    44 a                     +0.014533 H =        +0.395 eV
   43.    43 a                     -0.001704 H =        -0.046 eV
   42.    42 a                     -0.017327 H =        -0.471 eV
   41.    41 a                     -0.022639 H =        -0.616 eV
   40.    40 a                     -0.029256 H =        -0.796 eV
   39.    39 a                     -0.042935 H =        -1.168 eV
   38.    38 a                     -0.099736 H =        -2.714 eV
   37.    37 a        2.000        -0.155105 H =        -4.221 eV
   36.    36 a        2.000        -0.187234 H =        -5.095 eV
   35.    35 a        2.000        -0.192504 H =        -5.238 eV
   34.    34 a        2.000        -0.213928 H =        -5.821 eV
   33.    33 a        2.000        -0.217892 H =        -5.929 eV
   32.    32 a        2.000        -0.280926 H =        -7.644 eV
   31.    31 a        2.000        -0.296572 H =        -8.070 eV
   30.    30 a        2.000        -0.304596 H =        -8.288 eV
   29.    29 a        2.000        -0.320371 H =        -8.718 eV
   28.    28 a        2.000        -0.341648 H =        -9.297 eV
   27.    27 a        2.000        -0.358474 H =        -9.755 eV
   26.    26 a        2.000        -0.365863 H =        -9.956 eV
   25.    25 a        2.000        -0.378784 H =       -10.307 eV
   24.    24 a        2.000        -0.388558 H =       -10.573 eV
   23.    23 a        2.000        -0.424578 H =       -11.553 eV
   22.    22 a        2.000        -0.470941 H =       -12.815 eV


    ------------------------------------------------------------------------
         total  cpu-time :   3.85 seconds
         total wall-time :   3.87 seconds
    ------------------------------------------------------------------------

   ****  eiger : all done  ****


    2017-11-13 08:00:25.090 

