
   OpenMP run-time library returned nthreads =  8

 rirpa (c-16-18) : TURBOMOLE V7.3 ( 22142 ) 4 Jul 2018 at 18:12:42
 Copyright (C) 2018 TURBOMOLE GmbH, Karlsruhe


    2019-02-22 11:28:05.515 

 
 
    *************************************************************************
    *************************** PROGRAM RIRPA *******************************
    ******                                                             ******
    ******              H. Eshuis, J. E. Bates and F. Furche           ******
    ******                                                             ******
    ****** Nov 2011                                                    ******
    ****** Copyright TURBOMOLE GmbH                                    ******
    *************************************************************************
    
    
                                References:                                  
    
                   RIRPA:                                                    
                     H. Eshuis, J. Yarkony and F. Furche                     
                     Fast computation of molecular random phase              
                     approximation correlation energies using resolution     
                     of the identity imaginary frequency integration         
                     J. Chem. Phys. 132: 234114 (2010)                       
    
                     H. Eshuis, J. E. Bates and F. Furche                    
                     Electron correlation methods based on                   
                     the random phase approximation                          
                     Theor. Chem. Acc.  131: 1084 (2012)                     
    
                   TWO-COMPONENT RIRPA:                                      
                     M. Kuehn                                                
                     Correlation energies from the                           
                     two-component random-phase approximation                
                     J. Chem. Theory Comput. 10: 623 (2014)                  
    
                   RIRPA GRADIENTS:                                          
                     Asbjoern M. Burow, Jefferson E. Bates, Filipp Furche*,  
                     and Henk Eshuis                                         
                     Analytical First-Order Molecular Properties and Forces  
                     within the Adiabatic Connection Random Phase            
                     Approximation                                           
                     J. Chem. Theory Comput. 10: 180 (2014)                  
    
    
    
      ... OpenMP parallelization enabled, threads:    8

   *-----------------------------------------------------------------------*
   |                     program will use  8 thread(s)                     |
   *-----------------------------------------------------------------------*
 
                FOUND RI-J FLAG
 
  HF exact exchange energy will be computed using RI-JK.
 
  The HXX energy will NOT be computed due to nohxx option. 
 


              +--------------------------------------------------+
              | Atomic coordinate, charge and isotop information |
              +--------------------------------------------------+

                    atomic coordinates            atom    charge  isotop
          3.95560993    2.32873321   -0.15055768    c      6.000     0
          4.78993186    4.06522225    0.60705227    h      1.000     0
          4.10715587    2.42601540   -2.24210209    h      1.000     0
          5.34124315    0.00000000    0.80361895    c      6.000     0
          7.29575719    0.00000000    0.11783274    h      1.000     0
          5.36230131    0.00000000    2.87236979    h      1.000     0
          3.95560993   -2.32873321   -0.15055768    c      6.000     0
          4.10715587   -2.42601540   -2.24210209    h      1.000     0
          4.78993186   -4.06522225    0.60705227    h      1.000     0
          0.03893715   -4.59002529   -0.15055768    c      6.000     0
          1.12561981   -6.18081380    0.60705227    h      1.000     0
          0.04741303   -4.76990902   -2.24210209    h      1.000     0
         -2.67062158   -4.62565226    0.80361895    c      6.000     0
         -2.68115066   -4.64388916    2.87236979    h      1.000     0
         -3.64787859   -6.31831107    0.11783274    h      1.000     0
         -3.99454708   -2.26129208   -0.15055768    c      6.000     0
         -4.15456890   -2.34389362   -2.24210209    h      1.000     0
         -5.91555167   -2.11559155    0.60705227    h      1.000     0
         -3.99454708    2.26129208   -0.15055768    c      6.000     0
         -5.91555167    2.11559155    0.60705227    h      1.000     0
         -4.15456890    2.34389362   -2.24210209    h      1.000     0
         -2.67062158    4.62565226    0.80361895    c      6.000     0
         -3.64787859    6.31831107    0.11783274    h      1.000     0
         -2.68115066    4.64388916    2.87236979    h      1.000     0
          0.03893715    4.59002529   -0.15055768    c      6.000     0
          0.04741303    4.76990902   -2.24210209    h      1.000     0
          1.12561981    6.18081380    0.60705227    h      1.000     0
          0.00000000    0.00000000   -0.25274808    c      6.000     0
          0.00000000    0.00000000   -2.39447992    h      1.000     0
          1.30879838    2.26690530    0.65980285    n      7.000     0
          1.30879838   -2.26690530    0.65980285    n      7.000     0
         -2.61759677    0.00000000    0.65980285    n      7.000     0
 
       center of nuclear mass  :    0.00000000    0.00000000    0.21809089
       center of nuclear charge:    0.00000000    0.00000000    0.18150265
              +-------------------------------------------------+
              |        Rotational Constants Section             |
              +-------------------------------------------------+
                                   Center of Mass [a.u]:
               0.00000000000000         0.00000000000000         0.21809088588027
                     Principal Moments of Inertia [a.u.]
            1828.02905477538980      1828.02905477539139      3458.57176259200060
                       Rotational constants A,B,C [a.u.]
               0.00027351862854         0.00027351862854         0.00014456834622
                     Rotational constants A,B,C [cm**-1]
               0.03293147137853         0.03293147137853         0.01740593823947
                        Rotational constants A,B,C [MHz]
             987.26067501252521       987.26067501252442       521.81690086069227

   * BASIS SET information:

              +--------------------------------------------------+
              |               basis set information              |
              +--------------------------------------------------+

              we will work with the 1s 3p 5d 7f 9g ... basis set
              ...i.e. with spherical basis functions...

   type   atoms  prim   cont   basis
   ---------------------------------------------------------------------------
    c       10     50     30   cc-pVTZ   [4s3p2d1f|18s5p2d1f]
    h       19     16     14   cc-pVTZ   [3s2p1d|5s2p1d]
    n        3     50     30   cc-pVTZ   [4s3p2d1f|18s5p2d1f]
   ---------------------------------------------------------------------------
   total:   32    954    656
   ---------------------------------------------------------------------------

   total number of primitive shells          :   60
   total number of contracted shells         :  244
   total number of cartesian basis functions :  740
   total number of SCF-basis functions       :  656


   * AUXILIARY BASIS SET information:

              +--------------------------------------------------+
              |               basis set information              |
              +--------------------------------------------------+

              we will work with the 1s 3p 5d 7f 9g ... basis set
              ...i.e. with spherical basis functions...

   type   atoms  prim   cont   basis
   ---------------------------------------------------------------------------
    c       10     81     81   cc-pVTZ   [8s6p5d3f1g|8s6p5d3f1g]
    h       19     30     30   cc-pVTZ   [4s3p2d1f|4s3p2d1f]
    n        3     81     81   cc-pVTZ   [8s6p5d3f1g|8s6p5d3f1g]
   ---------------------------------------------------------------------------
   total:   32   1623   1623
   ---------------------------------------------------------------------------

   total number of primitive shells          :   56
   total number of contracted shells         :  489
   total number of cartesian basis functions : 1978
   total number of SCF-basis functions       : 1623


   * RI-JK AUXILIARY BASIS SET information:

              +--------------------------------------------------+
              |               basis set information              |
              +--------------------------------------------------+

              we will work with the 1s 3p 5d 7f 9g ... basis set
              ...i.e. with spherical basis functions...

   type   atoms  prim   cont   basis
   ---------------------------------------------------------------------------
    c       10     79     79   cc-pVTZ   [10s7p5d2f1g|10s7p5d2f1g]
    h       19     30     30   cc-pVTZ   [4s3p2d1f|4s3p2d1f]
    n        3     79     79   cc-pVTZ   [10s7p5d2f1g|10s7p5d2f1g]
   ---------------------------------------------------------------------------
   total:   32   1597   1597
   ---------------------------------------------------------------------------

   total number of primitive shells          :   60
   total number of contracted shells         :  515
   total number of cartesian basis functions : 1913
   total number of SCF-basis functions       : 1597

  No keyword $dft found! - HARTREE FOCK CALCULATION

 reading orbital data $scfmo  from file mos
 orbital characterization : scfconv=9

 integral neglect threshold       :  0.32E+02

 scfconv                     9

 MAXIMUM CORE MEMORY WHICH CAN BE ALLOCATED DYNAMICALLY = 80000 MiB
              ( or 10485760000 double words per process)


 there are 1 real representations :   a   

 maximum number of shells which are related by symmetry :  1

 time elapsed for calculating density matrices :   0.044 sec

     total memory allocated for calculation of (Q|P)**(-1/2) : 31 MiB


     calculation of (P|Q) ...
     time in lp2sym        cpu:  1.09 sec    wall:  0.14 sec    ratio:  8.0


     calculation of the Cholesky decomposition of (P|Q)**(-1) ...
     time in invmetri      cpu:  2.90 sec    wall:  0.40 sec    ratio:  7.2

   threshold for RMS(d[D]) in SCF was     :  0.10E-06
   integral neglect threshold             :  0.17E-13
   derivative integral neglect threshold  :  0.10E-06


 setting up bound for integral derivative estimation

 increment for numerical differentiation : 0.00050000
 total memory allocated for calculation of (Q|P)**(-1/2) : 31 MiB
 Dividing biap into                   5329  block chunks,
 using                     7 MiB per block
 Reserved                  39987 MiB for BLAS routines
 Estimated total memory usage:                  79996 MiB
 number of passes for ispin    1
 =    1
 
 Number of eigenvalues < 6e-3:                      0
 
 
            -----------------------------
            Complex frequency integration
            -----------------------------
 
 Number of Clenshaw-Curtis nodes:                    100
 Optimized scaling parameter    :    1.00000000000000     
 Sensitivity measure            :  -8.971989817752046E-014
 
 Done with rirpa frequency point #                     1
 Done with rirpa frequency point #                     2
 Done with rirpa frequency point #                     3
 Done with rirpa frequency point #                     4
 Done with rirpa frequency point #                     5
 Done with rirpa frequency point #                     6
 Done with rirpa frequency point #                     7
 Done with rirpa frequency point #                     8
 Done with rirpa frequency point #                     9
 Done with rirpa frequency point #                    10
 Done with rirpa frequency point #                    11
 Done with rirpa frequency point #                    12
 Done with rirpa frequency point #                    13
 Done with rirpa frequency point #                    14
 Done with rirpa frequency point #                    15
 Done with rirpa frequency point #                    16
 Done with rirpa frequency point #                    17
 Done with rirpa frequency point #                    18
 Done with rirpa frequency point #                    19
 Done with rirpa frequency point #                    20
 Done with rirpa frequency point #                    21
 Done with rirpa frequency point #                    22
 Done with rirpa frequency point #                    23
 Done with rirpa frequency point #                    24
 Done with rirpa frequency point #                    25
 Done with rirpa frequency point #                    26
 Done with rirpa frequency point #                    27
 Done with rirpa frequency point #                    28
 Done with rirpa frequency point #                    29
 Done with rirpa frequency point #                    30
 Done with rirpa frequency point #                    31
 Done with rirpa frequency point #                    32
 Done with rirpa frequency point #                    33
 Done with rirpa frequency point #                    34
 Done with rirpa frequency point #                    35
 Done with rirpa frequency point #                    36
 Done with rirpa frequency point #                    37
 Done with rirpa frequency point #                    38
 Done with rirpa frequency point #                    39
 Done with rirpa frequency point #                    40
 Done with rirpa frequency point #                    41
 Done with rirpa frequency point #                    42
 Done with rirpa frequency point #                    43
 Done with rirpa frequency point #                    44
 Done with rirpa frequency point #                    45
 Done with rirpa frequency point #                    46
 Done with rirpa frequency point #                    47
 Done with rirpa frequency point #                    48
 Done with rirpa frequency point #                    49
 Done with rirpa frequency point #                    50
 Done with rirpa frequency point #                    51
 Done with rirpa frequency point #                    52
 Done with rirpa frequency point #                    53
 Done with rirpa frequency point #                    54
 Done with rirpa frequency point #                    55
 Done with rirpa frequency point #                    56
 Done with rirpa frequency point #                    57
 Done with rirpa frequency point #                    58
 Done with rirpa frequency point #                    59
 Done with rirpa frequency point #                    60
 Done with rirpa frequency point #                    61
 Done with rirpa frequency point #                    62
 Done with rirpa frequency point #                    63
 Done with rirpa frequency point #                    64
 Done with rirpa frequency point #                    65
 Done with rirpa frequency point #                    66
 Done with rirpa frequency point #                    67
 Done with rirpa frequency point #                    68
 Done with rirpa frequency point #                    69
 Done with rirpa frequency point #                    70
 Done with rirpa frequency point #                    71
 Done with rirpa frequency point #                    72
 Done with rirpa frequency point #                    73
 Done with rirpa frequency point #                    74
 Done with rirpa frequency point #                    75
 Done with rirpa frequency point #                    76
 Done with rirpa frequency point #                    77
 Done with rirpa frequency point #                    78
 Done with rirpa frequency point #                    79
 Done with rirpa frequency point #                    80
 Done with rirpa frequency point #                    81
 Done with rirpa frequency point #                    82
 Done with rirpa frequency point #                    83
 Done with rirpa frequency point #                    84
 Done with rirpa frequency point #                    85
 Done with rirpa frequency point #                    86
 Done with rirpa frequency point #                    87
 Done with rirpa frequency point #                    88
 Done with rirpa frequency point #                    89
 Done with rirpa frequency point #                    90
 Done with rirpa frequency point #                    91
 Done with rirpa frequency point #                    92
 Done with rirpa frequency point #                    93
 Done with rirpa frequency point #                    94
 Done with rirpa frequency point #                    95
 Done with rirpa frequency point #                    96
 Done with rirpa frequency point #                    97
 Done with rirpa frequency point #                    98
 Done with rirpa frequency point #                    99
 Done with rirpa frequency point #                   100
 


 RI-RPA correlation energy: -0.2764167675811285E+01
 
 
 HXX Energy calculation skipped due to nohxx option
 

                  --------------------------------------------------- 
                 |  HXX+RIRPA total energy     =     -2.76416767581  |
                  ---------------------------------------------------- 
                 :  RIRPA correlation energy   =     -2.76416767581  :
                 :  HXX total energy           =      0.00000000000  :
                 :  Hartree energy             =      0.00000000000  :
                 :  Exact Exchange energy      =      0.00000000000  :
                  .................................................... 


    ------------------------------------------------------------------------
    Rirpa profiling                cpu                    wall         ratio
    ------------------------------------------------------------------------
    module                         sec     %               sec     %
    ------------------------------------------------------------------------
    RIRPA                      1651.5  100.00         1899.0  100.00   0.9
    STARTUP                       1.8    0.11            0.6    0.03   2.7
    riccmos                       2.7    0.16            0.6    0.03   4.2
    riccaux                       4.1    0.25            0.6    0.03   7.4
    riccbound                     3.5    0.21            2.3    0.12   1.5
    ccmkbaoi                     55.2    3.34            9.3    0.49   6.0
    cc3idxnrm                    67.4    4.08           38.3    2.02   1.8
    ecrpa                      1515.3   91.75         1845.3   97.17   0.8
    tread                       200.1   12.12         1646.2   86.69   0.1
    tqbuild                    1148.1   69.52          143.8    7.57   8.0
    trpaln                       52.4    3.17            6.6    0.35   8.0
    ------------------------------------------------------------------------
    sum                        4702.2  284.72         5592.6  294.50   0.8
    ------------------------------------------------------------------------


    ------------------------------------------------------------------------
         total  cpu-time : 27 minutes and 32 seconds
         total wall-time : 31 minutes and 39 seconds
    ------------------------------------------------------------------------

   ****  rirpa : all done  ****


    2019-02-22 11:59:44.514 

