Using Slurm to start processes with PMI2
STARTING ridft ON 8 PROCESSORS!
RUNNING PROGRAM /beegfs/modfac/apps/TURBOMOLE/7.0_intel_GA/bin/em64t-unknown-linux-gnu_mpi/ridft_mpi.
PLEASE WAIT UNTIL ridft HAS FINISHED.
Look for the output in slave1.output.
  this is node-proc. number 1 running on node c-7-8.local
  the total number of node-proc. spawned is            8
  parallel platform: MPP, or cluster with fast interconnect

 ridft (c-7-8.local) : TURBOMOLE V7.0.2( ) 15 Jan 2016 at 17:47:42
 Copyright (C) 2016 TURBOMOLE GmbH, Karlsruhe


    2017-11-07 21:43:44.800 



                                  r i d f t

                        DFT program with RI approximation 
                                for coulomb part 




                                                 
                                 References:     
                                                 
          TURBOMOLE:                             
              R. Ahlrichs, M. Baer, M. Haeser, H. Horn, and
              C. Koelmel
              Electronic structure calculations on workstation
              computers: the program system TURBOMOLE
              Chem. Phys. Lett. 162: 165 (1989)
          Density Functional:                              
              O. Treutler and R. Ahlrichs                      
              Efficient Molecular Numerical Integration Schemes
              J. Chem. Phys. 102: 346 (1995)                   
          Parallel Version:                                
              Performance of parallel TURBOMOLE for Density    
              Functional Calculations                          
              M. v. Arnim and R. Ahlrichs                      
              J. Comp. Chem. 19: 1746 (1998)                   
          RI-J Method:                                     
              Auxiliary Basis Sets to approximate Coulomb      
              Potentials                                       
              Chem. Phys. Lett. 240: 283 (1995)                
              K. Eichkorn, O. Treutler, H. Oehm, M. Haeser     
              and R. Ahlrichs                                  
              Chem. Phys. Lett. 242: 652 (1995)                
                                                           
              Auxiliary Basis Sets for Main Row Atoms and their
              Use to approximate Coulomb Potentials            
              K. Eichkorn, F. Weigend, O. Treutler and         
              R. Ahlrichs                                      
              Theo. Chem. Acc. 97: 119 (1997)                   
                                                           
              Accurate Coulomb-fitting basis sets for H to Rn 
              F. Weigend                                        
              Phys. Chem. Chem. Phys. 8: 1057 (2006)            
                                                           
          Multipole accelerated RI-J (MARI-J):             
              Fast evaluation of the Coulomb potential for     
              electron densities using multipole accelerated   
              resolution of identity approximation             
              M. Sierka, A. Hogekamp and R. Ahlrichs           
              J. Chem. Phys. 118: 9136 (2003)                  
          RI-JK Method:                                     
              A fully direct RI-HF algorithm: Implementation,
              optimised auxiliary basis sets, demonstration of
              accuracy and efficiency                         
              F. Weigend                                      
              Phys. Chem. Chem. Phys. 4: 4285 (2002)           
          Two-component HF and DFT with spin-orbit coupling:  
              Self-consistent treatment of spin-orbit         
              interactions with efficient Hartree-Fock and    
              density functional methods                      
              M. K. Armbruster, F. Weigend, C. van Wüllen and 
              W. Klopper                                      
              Phys. Chem. Chem. Phys. 10: 1748 (2008)         
          Relativistic all-electron 2c calculations           
              An efficient implementation of two-component    
              relativistic exact-decoupling methods for large 
              molecules                                       
              D. Peng, N. Middendorf, F. Weigend, M. Reiher   
              J. Chem. Phys. 138, 184105 (2013)               
                                         


 


              +--------------------------------------------------+
              |      general information about current run       |
              +--------------------------------------------------+

 

 SCF run will be profiled !


 DENSITY CONVERGENCE CHECK SWITCHED ON !
 SCF CONVERGENCE IF RMS(delta[D]) <     0.1000000000E-06

 TPSS meta-GGA functional
 exchange:    LDA + TPSS
 correlation: LDA (PW) + TPSS
 A DFT calculation using the RI-J approximation will be carried out.
 Allocatable memory for RI due to $ricore (MB):       12000


              +--------------------------------------------------+
              | Atomic coordinate, charge and isotop information |
              +--------------------------------------------------+

                    atomic coordinates            atom    charge  isotop
         -0.03535146    4.29107920    0.24982253    c      6.000     0
         -0.75738963   -0.11048164    0.42116808    c      6.000     0
         -2.19939078    3.86477743    1.76242829    c      6.000     0
         -2.65217891    1.10656338    1.87986452    c      6.000     0
         -3.30209698    5.99522864    2.86863730    c      6.000     0
         -0.23569882    8.70662256    0.92669905    c      6.000     0
         -2.50182640   -4.09486110    1.45392160    c      6.000     0
         -2.31383298    8.41050675    2.49430196    c      6.000     0
          0.96296462    1.81300021   -0.67826082    c      6.000     0
         -0.65587480   -2.71402037    0.18598611    c      6.000     0
          0.95771161    6.65315783   -0.21994540    c      6.000     0
         -4.38208902   -2.95815994    2.91139948    c      6.000     0
         -4.46480965   -0.33478538    3.13359756    c      6.000     0
         -5.54853087    5.85575495    4.50943713    n      7.000     0
          0.75818111   11.27147990    0.50662751    n      7.000     0
         -2.46689288   -6.87084789    1.25422892    n      7.000     0
         -7.27881521    4.43174722    3.85754329    o      8.000     0
         -5.56674865    7.21105183    6.40383546    o      8.000     0
          2.62925103   11.47775583   -0.87168545    o      8.000     0
         -0.76880662   -7.84789201   -0.00946968    o      8.000     0
         -0.33539161   13.04547697    1.55802431    o      8.000     0
         -4.14386807   -8.05678335    2.37070255    o      8.000     0
          2.80988501    1.53021009   -2.02642837    o      8.000     0
         -5.94167942    0.53371505    4.24582014    h      1.000     0
         -3.16269627   10.03483304    3.40371934    h      1.000     0
         -5.75831993   -4.14366486    3.84880881    h      1.000     0
          2.60460665    6.90346163   -1.40880503    h      1.000     0
          0.78167161   -3.64955053   -0.91979858    h      1.000     0
 
       center of nuclear mass  :   -1.82385760    2.75999102    1.54330834
       center of nuclear charge:   -1.83120155    2.74736126    1.54787311

              +--------------------------------------------------+
              |               basis set information              |
              +--------------------------------------------------+

              we will work with the 1s 3p 5d 7f 9g ... basis set
              ...i.e. with spherical basis functions...

   type   atoms  prim   cont   basis
   ---------------------------------------------------------------------------
    c       13     77     55   cc-pVQZ   [5s4p3d2f1g|21s6p3d2f1g]
    n        3     77     55   cc-pVQZ   [5s4p3d2f1g|21s6p3d2f1g]
    o        7     77     55   cc-pVQZ   [5s4p3d2f1g|21s6p3d2f1g]
    h        5     32     30   cc-pVQZ   [4s3p2d1f|6s3p2d1f]
   ---------------------------------------------------------------------------
   total:   28   1931   1415
   ---------------------------------------------------------------------------

   total number of primitive shells          :  111
   total number of contracted shells         :  395
   total number of cartesian basis functions : 1785
   total number of SCF-basis functions       : 1415


 integral neglect threshold       :  0.19E-13
 integral storage threshold THIZE :  0.10E-04
 integral storage threshold THIME :         5

 RI-J AUXILIARY BASIS SET information:

              we will work with the 1s 3p 5d 7f 9g ... basis set
              ...i.e. with spherical basis functions...

   type   atoms  prim   cont   basis
   ---------------------------------------------------------------------------
    c       13     70     49   cc-pVQZ   [6s4p3d1f1g|12s5p4d2f1g]
    n        3     70     49   cc-pVQZ   [6s4p3d1f1g|12s5p4d2f1g]
    o        7     70     49   cc-pVQZ   [6s4p3d1f1g|12s5p4d2f1g]
    h        5     16     11   cc-pVQZ   [3s1p1d|5s2p1d]
   ---------------------------------------------------------------------------
   total:   28   1690   1182
   ---------------------------------------------------------------------------

   total number of primitive shells          :   80
   total number of contracted shells         :  370
   total number of cartesian basis functions : 1463
   total number of SCF-basis functions       : 1182


 symmetry group of the molecule :   c1 

 the group has the following generators :
   c1(z)

    1 symmetry operations found

 there are 1 real representations :   a   

 maximum number of shells which are related by symmetry :  1


    mo occupation :
   irrep   mo's   occupied
    a     1415       80
 
 number of basis functions   :         1415
 number of occupied orbitals :           80
 
  
           ------------------
           density functional
           ------------------
 TPSS meta-GGA functional
 exchange:    LDA + TPSS
 correlation: LDA (PW) + TPSS
 grinp -> nfun, dfgga, dfhybrid 
           5 F F
 iterations will be done with small grid
  
 spherical integration : Lebedev's spherical grid
 spherical gridsize    :           5
    i.e. gridpoints    :         590
 value for diffuse not defined
 radial integration    : Chebyshev 2nd kind (scaling 3)
 radial gridsize       :           8
 integration cells     :          28
 partition function    : becke
 partition sharpness   :           3
  

 <rddim> : input of entry tasksize
           from data group '$pardft' failed !

               Default values taken

 <rddim> : input of entry memdiv
           from data group '$pardft' failed !

               Default values taken
  RIDFT: memory allocation for DFT gridpoints
  MEMORY is divided by 1 as DEFAULT
 Each node can hold at most  the            1 -th part
 of the gridpoints    

 biggest AO integral is expected to be     4.785886462
  
           ------------------------
               RI-J - INFORMATION
           ------------------------
 
 
 **************************************************
 *      MEMORY ALLOCATION FOR PARALLEL RI-DFT     *
 **************************************************
 
 
MEMORY FOR (MU NU/ ALPHA), SEQUENTIAL RUN              11989 MByte
 
            DIFFERENCE IN MEMORY NEED:       DIAG./SLAVE  
 
      TOTAL DIFFERENCE :                     94 MByte
 
      difference in xcore:                   12 MByte
      difference in fatmat:                  27 MByte
      getcor calls skipped by slaves:        55 MByte
 
 
           Integral memory available for diagonal.     11989 MByte
 
           Integral memory available for slave             0 MByte
 
         MEMORY FOR (MU NU/ ALPHA) ON DIAGONALIZER     11989 MByte
 
         MEMORY FOR (MU NU/ ALPHA) ON ONE SLAVE            0 MByte
 
         TOTAL MEMORY FOR (MU NU/ ALPHA),ALL NODES     11989 MByte
 
 Contributions to RI integral batches: 
  neglected integral batches:       32794
  direct contribution:                  0
  memory contribution:       45416
 Memory core needed for (P|Q) and Cholesky     11 MByte
 Memory core minimum needed except of (P|Q)     8 MByte
 Total minimum memory core needed (sum)        19 MByte
  
 ****************************************
 Memory allocated for RI-J 12007 MByte
 ****************************************
                                            

          ------------------------
          nuclear repulsion energy  :   1798.05111018    
          ------------------------

 
          -----------------
          -S integrals
          -----------------

 1e-integrals will be neglected if expon. factor < 0.187225E-14
 
          -----------------
          -T+V integrals
          -----------------

 1e-integrals will be neglected if expon. factor < 0.187225E-14
 Difference densities >>NOT<< switched on in parallel ridft!

 automatic virtual orbital shift switched on 
      shift if e(lumo)-e(homo) < 0.10000000    


 DIIS switched on: error vector is FDS-SDF
 Max. Iterations for DIIS is     :   4
 DIIS matrix (see manual) 
    Scaling factor of diagonals  :  1.200
    threshold for scaling factor :  0.000

 scf convergence criterion : increment of total energy < .1000000D-08
                  and increment of one-electron energy < .1000000D-05


 <geterg> : there is no data group $energy 

  MOs are in ASCII format !


 reading orbital data $scfmo  from file mos . 

 orbital characterization : expanded
 
 mo provided and orthogonalized by Cholesky decomposition

 DSCF restart information will be dumped onto file mos


 Starting SCF iterations


 ITERATION  ENERGY          1e-ENERGY        2e-ENERGY     RMS[dD(SAO)]   TOL
   1  -1183.9326378601    -5147.5432573     2165.5595092    0.000D+00 0.187D-13
                            Exc = -152.010930553     Coul =  2317.57043980    
                              N = 160.00008266    
                            current damping = 0.700
 
          max. resid. norm for Fia-block=  4.670D-01 for orbital     51a         
          max. resid. fock norm         =  1.142D+01 for orbital   1316a         

 ITERATION  ENERGY          1e-ENERGY        2e-ENERGY     RMS[dD(SAO)]   TOL
   2  -1188.8122687107    -5178.4141358     2191.5507569    0.161D-01 0.187D-13
                            Exc = -152.536980374     Coul =  2344.08773731    
                              N = 160.00006634    
                            current damping = 0.650
 
          Norm of current diis error:  5.0727    
          max. resid. norm for Fia-block=  1.656D-01 for orbital      3a         
          max. resid. fock norm         =  4.223D-01 for orbital   1217a         

 ITERATION  ENERGY          1e-ENERGY        2e-ENERGY     RMS[dD(SAO)]   TOL
   3  -1189.3991969365    -5188.6942365     2201.2439294    0.616D-02 0.187D-13
                            Exc = -153.347787757     Coul =  2354.59171719    
                              N = 160.00006087    
                            current damping = 0.550
 
          Norm of current diis error:  2.4198    
          max. resid. norm for Fia-block=  6.615D-02 for orbital      1a         
          max. resid. fock norm         =  1.266D-01 for orbital   1193a         

 ITERATION  ENERGY          1e-ENERGY        2e-ENERGY     RMS[dD(SAO)]   TOL
   4  -1189.5956087253    -5191.0602383     2203.4135194    0.229D-02 0.187D-13
                            Exc = -153.230452260     Coul =  2356.64397166    
                              N = 160.00006056    
                            current damping = 0.450
 
          Norm of current diis error:  1.0169    
          max. resid. norm for Fia-block=  3.435D-02 for orbital     28a         
          max. resid. fock norm         =  6.556D-02 for orbital   1224a         

 ITERATION  ENERGY          1e-ENERGY        2e-ENERGY     RMS[dD(SAO)]   TOL
   5  -1189.6401999732    -5192.4594988     2204.7681886    0.120D-02 0.187D-13
                            Exc = -153.438220939     Coul =  2358.20640958    
                              N = 160.00006017    
                            current damping = 0.350
 
          Norm of current diis error: 0.54628    
          max. resid. norm for Fia-block=  1.380D-02 for orbital     79a         
          max. resid. fock norm         =  3.357D-02 for orbital   1357a         
          mo-orthogonalization: Cholesky decomposition

 ITERATION  ENERGY          1e-ENERGY        2e-ENERGY     RMS[dD(SAO)]   TOL
   6  -1189.6496234806    -5193.0657026     2205.3649690    0.911D-03 0.187D-13
                            Exc = -153.425693965     Coul =  2358.79066294    
                              N = 160.00006043    
                            current damping = 0.250
 
          Norm of current diis error: 0.34968    
          max. resid. norm for Fia-block=  9.053D-03 for orbital     71a         
          max. resid. fock norm         =  1.875D-02 for orbital   1409a         

 ITERATION  ENERGY          1e-ENERGY        2e-ENERGY     RMS[dD(SAO)]   TOL
   7  -1189.6513988045    -5193.2182166     2205.5157076    0.277D-03 0.187D-13
                            Exc = -153.432831196     Coul =  2358.94853882    
                              N = 160.00006020    
                            current damping = 0.100
 
          Norm of current diis error: 0.27924    
          max. resid. norm for Fia-block=  8.376D-03 for orbital     71a         
          max. resid. fock norm         =  1.933D-02 for orbital   1409a         
          irrep a   : virtual orbitals shifted by    0.00535

 ITERATION  ENERGY          1e-ENERGY        2e-ENERGY     RMS[dD(SAO)]   TOL
   8  -1189.6521257327    -5193.0597540     2205.3565181    0.137D-03 0.187D-13
                            Exc = -153.423425599     Coul =  2358.77994366    
                              N = 160.00006011    
                            current damping = 0.150
 
          Norm of current diis error: 0.22384    
          max. resid. norm for Fia-block=  6.390D-03 for orbital     71a         
          max. resid. fock norm         =  1.356D-02 for orbital   1409a         
          irrep a   : virtual orbitals shifted by    0.00401

 ITERATION  ENERGY          1e-ENERGY        2e-ENERGY     RMS[dD(SAO)]   TOL
   9  -1189.6535892999    -5193.0550299     2205.3503304    0.103D-03 0.187D-13
                            Exc = -153.433398618     Coul =  2358.78372902    
                              N = 160.00006027    
                            current damping = 0.050
 
          Norm of current diis error: 0.96179E-01
          max. resid. norm for Fia-block=  1.827D-03 for orbital     71a         
          max. resid. fock norm         =  4.046D-03 for orbital   1409a         
          irrep a   : virtual orbitals shifted by    0.01148

 ITERATION  ENERGY          1e-ENERGY        2e-ENERGY     RMS[dD(SAO)]   TOL
  10  -1189.6538247880    -5193.1107905     2205.4058555    0.362D-04 0.187D-13
                            Exc = -153.434135663     Coul =  2358.83999115    
                              N = 160.00006015    
                            current damping = 0.100
 
          Norm of current diis error: 0.39282E-01
          max. resid. norm for Fia-block=  5.995D-04 for orbital     68a         
          max. resid. fock norm         =  1.180D-03 for orbital   1409a         
          irrep a   : virtual orbitals shifted by    0.00741
          mo-orthogonalization: Cholesky decomposition

 ITERATION  ENERGY          1e-ENERGY        2e-ENERGY     RMS[dD(SAO)]   TOL
  11  -1189.6538423715    -5193.1136832     2205.4087306    0.172D-04 0.187D-13
                            Exc = -153.430288913     Coul =  2358.83901951    
                              N = 160.00006021    
                            current damping = 0.050
 
          Norm of current diis error: 0.30567E-01
          max. resid. norm for Fia-block=  7.062D-04 for orbital     68a         
          max. resid. fock norm         =  1.459D-03 for orbital   1413a         
          irrep a   : virtual orbitals shifted by    0.01142

 ITERATION  ENERGY          1e-ENERGY        2e-ENERGY     RMS[dD(SAO)]   TOL
  12  -1189.6538558469    -5193.0734649     2205.3684989    0.114D-04 0.187D-13
                            Exc = -153.432048178     Coul =  2358.80054708    
                              N = 160.00006020    
                            current damping = 0.100
 
          Norm of current diis error: 0.19670E-01
          max. resid. norm for Fia-block=  5.894D-04 for orbital     68a         
          max. resid. fock norm         =  1.276D-03 for orbital   1413a         
          irrep a   : virtual orbitals shifted by    0.00750

 ITERATION  ENERGY          1e-ENERGY        2e-ENERGY     RMS[dD(SAO)]   TOL
  13  -1189.6538635749    -5193.0944023     2205.3894286    0.927D-05 0.187D-13
                            Exc = -153.431989690     Coul =  2358.82141827    
                              N = 160.00006017    
                            current damping = 0.150
 
          Norm of current diis error: 0.11038E-01
          max. resid. norm for Fia-block=  3.505D-04 for orbital     68a         
          max. resid. fock norm         =  7.503D-04 for orbital   1413a         
          irrep a   : virtual orbitals shifted by    0.00322

 ITERATION  ENERGY          1e-ENERGY        2e-ENERGY     RMS[dD(SAO)]   TOL
  14  -1189.6538663124    -5193.0975296     2205.3925531    0.444D-05 0.187D-13
                            Exc = -153.432069880     Coul =  2358.82462294    
                              N = 160.00006020    
                            current damping = 0.050
 
          Norm of current diis error: 0.63334E-02
          max. resid. norm for Fia-block=  1.550D-04 for orbital     71a         
          max. resid. fock norm         =  3.493D-04 for orbital   1409a         
          irrep a   : virtual orbitals shifted by    0.01152

 ITERATION  ENERGY          1e-ENERGY        2e-ENERGY     RMS[dD(SAO)]   TOL
  15  -1189.6538662989    -5193.0934377     2205.3884613    0.390D-05 0.187D-13
                            Exc = -153.432184509     Coul =  2358.82064577    
                              N = 160.00006018    
                            current damping = 0.100
 
          Norm of current diis error: 0.61784E-02
          max. resid. norm for Fia-block=  1.209D-04 for orbital     71a         
          max. resid. fock norm         =  2.836D-04 for orbital   1409a         
          irrep a   : virtual orbitals shifted by    0.00737
          mo-orthogonalization: Cholesky decomposition

 ITERATION  ENERGY          1e-ENERGY        2e-ENERGY     RMS[dD(SAO)]   TOL
  16  -1189.6538673733    -5193.0927151     2205.3877375    0.226D-05 0.187D-13
                            Exc = -153.431993118     Coul =  2358.81973061    
                              N = 160.00006019    
                            current damping = 0.050
 
          Norm of current diis error: 0.24709E-02
          max. resid. norm for Fia-block=  6.970D-05 for orbital     68a         
          max. resid. fock norm         =  1.428D-04 for orbital   1413a         
          irrep a   : virtual orbitals shifted by    0.01163

 ITERATION  ENERGY          1e-ENERGY        2e-ENERGY     RMS[dD(SAO)]   TOL
  17  -1189.6538673999    -5193.0932279     2205.3882503    0.165D-05 0.187D-13
                            Exc = -153.431961047     Coul =  2358.82021136    
                              N = 160.00006019    
                            current damping = 0.100
 
          Norm of current diis error: 0.22656E-02
          max. resid. norm for Fia-block=  4.528D-05 for orbital     68a         
          max. resid. fock norm         =  9.903D-05 for orbital   1413a         
          irrep a   : virtual orbitals shifted by    0.00739

 ITERATION  ENERGY          1e-ENERGY        2e-ENERGY     RMS[dD(SAO)]   TOL
  18  -1189.6538675329    -5193.0948340     2205.3898563    0.105D-05 0.187D-13
                            Exc = -153.432045363     Coul =  2358.82190163    
                              N = 160.00006019    
                            current damping = 0.050
 
          Norm of current diis error: 0.10768E-02
          max. resid. norm for Fia-block=  4.090D-05 for orbital     68a         
          max. resid. fock norm         =  8.553D-05 for orbital   1413a         
          irrep a   : virtual orbitals shifted by    0.01159

 ITERATION  ENERGY          1e-ENERGY        2e-ENERGY     RMS[dD(SAO)]   TOL
  19  -1189.6538675061    -5193.0933371     2205.3883594    0.569D-06 0.187D-13
                            Exc = -153.432046435     Coul =  2358.82040583    
                              N = 160.00006019    
                            current damping = 0.100
 
          Norm of current diis error: 0.13316E-02
          max. resid. norm for Fia-block=  2.389D-05 for orbital     68a         
          max. resid. fock norm         =  5.250D-05 for orbital   1413a         
          irrep a   : virtual orbitals shifted by    0.00739

 ITERATION  ENERGY          1e-ENERGY        2e-ENERGY     RMS[dD(SAO)]   TOL
  20  -1189.6538675611    -5193.0937277     2205.3887499    0.402D-06 0.187D-13
                            Exc = -153.432015188     Coul =  2358.82076510    
                              N = 160.00006019    
                            current damping = 0.150
 
          Norm of current diis error: 0.34709E-03
          max. resid. norm for Fia-block=  8.583D-06 for orbital     71a         
          max. resid. fock norm         =  1.989D-05 for orbital   1409a         
          irrep a   : virtual orbitals shifted by    0.00318
          mo-orthogonalization: Cholesky decomposition

 ITERATION  ENERGY          1e-ENERGY        2e-ENERGY     RMS[dD(SAO)]   TOL
  21  -1189.6538675617    -5193.0938142     2205.3888364    0.134D-06 0.187D-13
                            Exc = -153.432019611     Coul =  2358.82085605    
                              N = 160.00006019    
                            current damping = 0.050
 
          Norm of current diis error: 0.29607E-03
          max. resid. norm for Fia-block=  6.876D-06 for orbital     71a         
          max. resid. fock norm         =  1.551D-05 for orbital   1409a         
          irrep a   : virtual orbitals shifted by    0.01160

 ITERATION  ENERGY          1e-ENERGY        2e-ENERGY     RMS[dD(SAO)]   TOL
  22  -1189.6538675638    -5193.0939315     2205.3889537    0.109D-06 0.187D-13
                            Exc = -153.432021930     Coul =  2358.82097567    
                              N = 160.00006019    
                            current damping = 0.050
 
          Norm of current diis error: 0.13844E-03
          max. resid. norm for Fia-block=  3.243D-06 for orbital     71a         
          max. resid. fock norm         =  7.936D-06 for orbital   1409a         
          irrep a   : virtual orbitals shifted by    0.01160

 DENSITY CONVERGED !


 ITERATION  ENERGY          1e-ENERGY        2e-ENERGY     RMS[dD(SAO)]   TOL
  23  -1189.6538675641    -5193.0939251     2205.3889473    0.670D-07 0.187D-13
                            Exc = -153.432018784     Coul =  2358.82096610    
                              N = 160.00006019    
                            current damping = 0.100
 
          Norm of current diis error: 0.99247E-04
          max. resid. norm for Fia-block=  2.112D-06 for orbital     68a         
          max. resid. fock norm         =  4.465D-06 for orbital   1413a         
          irrep a   : virtual orbitals shifted by    0.00739

 DENSITY CONVERGED !


 ITERATION  ENERGY          1e-ENERGY        2e-ENERGY     RMS[dD(SAO)]   TOL
  24  -1189.6538675644    -5193.0938790     2205.3889013    0.442D-07 0.187D-13
                            Exc = -153.432022527     Coul =  2358.82092380    
                              N = 160.00006019    
                            current damping = 0.050
 
          Norm of current diis error: 0.46732E-04
          max. resid. norm for Fia-block=  1.379D-06 for orbital     68a         
          max. resid. fock norm         =  2.928D-06 for orbital   1413a         
          irrep a   : virtual orbitals shifted by    0.01160

 DENSITY CONVERGED !


 ITERATION  ENERGY          1e-ENERGY        2e-ENERGY     RMS[dD(SAO)]   TOL
  25  -1189.6538675644    -5193.0938963     2205.3889185    0.222D-07 0.187D-13
                            Exc = -153.432020115     Coul =  2358.82093863    
                              N = 160.00006019    
                            current damping = 0.100
 
          Norm of current diis error: 0.32236E-04
          max. resid. norm for Fia-block=  5.107D-07 for orbital     68a         
          max. resid. fock norm         =  1.183D-06 for orbital   1413a         
          irrep a   : virtual orbitals shifted by    0.00739
          mo-orthogonalization: Cholesky decomposition

 ENERGY & DENSITY CONVERGED !


 ITERATION  ENERGY          1e-ENERGY        2e-ENERGY     RMS[dD(SAO)]   TOL
  26  -1189.6535863017    -5193.0938989     2205.3892024    0.862D-08 0.187D-13
                            Exc = -153.431738749     Coul =  2358.82094112    
                              N = 160.00000303    
                            current damping = 0.050
 
          Norm of current diis error: 0.12012E-04
          max. resid. norm for Fia-block=  1.514D-07 for orbital     71a         
          max. resid. fock norm         =  3.405D-07 for orbital   1409a         

 End of SCF iterations

   convergence criteria satisfied after   26 iterations


                  ------------------------------------------ 
                 |  total energy      =  -1189.65358630170  |
                  ------------------------------------------ 
                 :  kinetic energy    =   1185.13302055282  :
                 :  potential energy  =  -2374.78660685452  :
                 :  virial theorem    =      1.99620009909  :
                 :  wavefunction norm =      1.00000000000  :
                  .......................................... 


 <geterg> : there is no data group $energy 


 <skperg> : $end is missing 


 orbitals $scfmo  will be written to file mos

    irrep                 76a         77a         78a         79a         80a   
 eigenvalues H         -0.28357    -0.27858    -0.27388    -0.27197    -0.26086
            eV          -7.7163     -7.5806     -7.4527     -7.4007     -7.0985
 occupation              2.0000      2.0000      2.0000      2.0000      2.0000 

    irrep                 81a         82a         83a         84a         85a   
 eigenvalues H         -0.17667    -0.16059    -0.14623    -0.14021    -0.09113
            eV          -4.8076     -4.3698     -3.9791     -3.8154     -2.4797
 
 
 ! grave: sending quit signal to master process
 
 
 
 
 ==============================================================================
                           electrostatic moments
 ==============================================================================

 reference point for electrostatic moments:    0.00000   0.00000   0.00000

 
              nuc           elec       ->  total
 ------------------------------------------------------------------------------
                          charge      
 ------------------------------------------------------------------------------
         160.000000    -160.000000      -0.000000
 
 ------------------------------------------------------------------------------
                       dipole moment  
 ------------------------------------------------------------------------------
   x    -292.992248     292.564845      -0.427403
   y     439.577801    -439.497976       0.079826
   z     247.659698    -247.391440       0.268258
 
   | dipole moment | =     0.5109 a.u. =     1.2986 debye 
 
 ------------------------------------------------------------------------------
                     quadrupole moment
 ------------------------------------------------------------------------------
  xx    1739.796384   -1840.300566    -100.504182
  yy    7443.903808   -7569.317036    -125.413228
  zz    1011.690755   -1108.619291     -96.928536
  xy    -177.185456     173.810575      -3.374881
  xz   -1249.219536    1254.494460       5.274924
  yz     814.431861    -816.560673      -2.128812
 
     1/3  trace=    -107.615315
     anisotropy=      29.215599
 
 ==============================================================================
 

    ridft profiling
  --------------------------------------------------------------------
             module   cpu total (s)       %  wall total (s)       %

               RIDFT          1498.9  100.00          1498.1  100.00
         Ridft_b_scf            49.6    3.31            49.6    3.31
        b_scf_prelim             0.0    0.00             0.0    0.00
        b_scf_molinp             0.0    0.00             0.0    0.00
         b_scf_init0             0.0    0.00             0.0    0.00
        b_scf_auxbas             0.0    0.00             0.0    0.00
      b_scf_symmetry             0.0    0.00             0.0    0.00
         b_scf_cosmo             0.0    0.00             0.0    0.00
        b_scf_params             4.1    0.28             4.1    0.28
          b_scf_ri-j            37.6    2.51            37.5    2.51
    b_scf_ri-j_auxpq            37.6    2.51            37.5    2.51
     ri-j_auxpq_chol             0.3    0.02             0.3    0.02
         b_scf_1elec             0.9    0.06             0.9    0.06
       b_scf_moinput             6.9    0.46             6.9    0.46
     moinput_orthmos             6.8    0.45             6.8    0.45
    b_scf_dft-dstmax             0.0    0.00             0.0    0.00
           Ridft_scf          1449.0   96.66          1448.1   96.66
          Scf_b_loop             0.0    0.00             0.0    0.00
                noga             0.0    0.00             0.0    0.00
            Scf_loop          1447.5   96.57          1446.7   96.57
     scf_loop_mkdmat             3.8    0.25             4.0    0.27
       scf_loop_ri-j            61.4    4.10            61.3    4.10
      parlp1.bc.dens             1.6    0.11             1.6    0.11
        parlp1.gs.gp             0.0    0.00             0.0    0.00
        parlp2.bc.gq             0.0    0.00             0.0    0.00
        scf_loop_dft          1245.5   83.09          1244.6   83.08
      pardft.bc.dens             0.0    0.00             0.0    0.00
        dft_grid_con             0.4    0.03             0.4    0.03
          dft_xcmrhf          1224.3   81.68          1223.5   81.67
          dft_getval            16.8    1.12            16.7    1.12
          funct2 dst             0.2    0.01             0.2    0.01
      funct2 f2loop1             4.3    0.28             4.3    0.28
      funct2 f2loop2             6.1    0.41             6.1    0.41
          funct2 s+c             5.9    0.39             5.9    0.39
        funct2 cmf_2             5.3    0.35             5.3    0.35
          dft_mkdens           589.1   39.30           588.7   39.30
        dft_mgga-fun             0.7    0.05             0.7    0.05
          dft_mkfock           617.4   41.19           616.9   41.18
     pardft.red.fock            83.9    5.60            83.9    5.60
     scf_loop_energy             0.0    0.00             0.0    0.00
     scf_loop_mkfock             0.1    0.00             0.1    0.00
       scf_loop_diis            56.6    3.78            56.6    3.78
       scf_loop_diag            37.6    2.51            37.6    2.51
         diag_tritrn            10.9    0.73            10.9    0.73
          diag_rdiag            26.4    1.76            26.4    1.76
     scf_loop_modump            31.1    2.08            31.1    2.08
      scf_loop_ortho            10.2    0.68            10.2    0.68
          Scf_a_loop             1.4    0.09             1.4    0.09
         Ridft_a_scf             0.4    0.02             0.4    0.03
         a_scf_fanal             0.3    0.02             0.3    0.02
 


    ------------------------------------------------------------------------
         total  cpu-time : 25 minutes and  1 seconds
         total wall-time : 25 minutes and  0 seconds
    ------------------------------------------------------------------------


   ****  ridft : all done  ****


    2017-11-07 22:08:44.606 

