 this is node-proc. number 0 running on node c-4-13.local
 the total number of node-proc. spawned is  17

 dscfserver (c-4-13.local) : TURBOMOLE V7.2 ( 21471 ) 7 Nov 2017 at 16:15:16
 Copyright (C) 2017 TURBOMOLE GmbH, Karlsruhe


    2018-02-15 01:32:13.131 

 
    0:00:17 ---- Start global counter...
    0:12:17 ---- ... finished.
 
    0:12:46 ---- Start global counter...
    0:21:25 ---- ... finished.
 
    0:21:55 ---- Start global counter...
    0:29:07 ---- ... finished.
 
    0:29:37 ---- Start global counter...
    0:36:07 ---- ... finished.
 
    0:36:36 ---- Start global counter...
    0:42:11 ---- ... finished.
 
    0:42:46 ---- Start global counter...
    0:47:48 ---- ... finished.
 
    0:48:18 ---- Start global counter...
    0:52:56 ---- ... finished.
 
    0:53:23 ---- ByeBye Tag received


 ! Total wall-clock time in seconds  :     3203.0
 ! Time (sec) spent in global counter:     2974.7
 ! So-called SERIAL wall-clock time  :      228.3

  *** Regular termination of server ***
 total turnaround time of dscfserver  3203.48 sec
 cpu elapsed by dscfserver process    2976.10 sec 

   ***  dscf server : all done  ***


    2018-02-15 02:25:36.607 

