
   OpenMP run-time library returned nthreads =  8

 ricc2 (c-15-37.local) : TURBOMOLE V7.2 ( 21471 ) 11 Oct 2017 at 17:04:51
 Copyright (C) 2017 TURBOMOLE GmbH, Karlsruhe


    2018-04-03 13:44:38.183 



                              R I C C 2 - PROGRAM

                          the quantum chemistry groups
                             at the universities in
                           Karlsruhe, Bochum & Mainz
                                   Germany



   *-----------------------------------------------------------------------*
   |                     program will use  8 thread(s)                     |
   *-----------------------------------------------------------------------*


              +--------------------------------------------------+
              | Atomic coordinate, charge and isotop information |
              +--------------------------------------------------+

                    atomic coordinates            atom    charge  isotop
          1.54719462    1.71757654    1.66555349    c      6.000     0
         -2.63351196    1.69686384    0.07163914    c      6.000     0
          1.18861571   -0.54996825    0.28890012    c      6.000     0
         -1.42727715   -0.54817147   -0.74095728    c      6.000     0
          3.27366900   -2.16340348    0.10104542    c      6.000     0
          5.81576688    0.69742007    2.53401701    c      6.000     0
         -6.34181871    0.57128841   -2.14831436    c      6.000     0
          5.59763044   -1.53662064    1.18145029    c      6.000     0
         -0.85465563    3.22098460    1.63371602    c      6.000     0
         -5.09075719    2.29301967   -0.59715603    c      6.000     0
          3.80021588    2.37353091    2.81270485    c      6.000     0
         -5.20783663   -1.64263827   -3.00799547    c      6.000     0
         -2.73004967   -2.22630755   -2.30332935    c      6.000     0
          3.17989462   -4.63945688   -1.19946085    n      7.000     0
          8.28444295    1.31316429    3.71016234    n      7.000     0
         -8.98037433    1.12112837   -2.92161404    n      7.000     0
          1.20336677   -5.86144996   -1.02192163    o      8.000     0
          5.10115102   -5.32385741   -2.31235090    o      8.000     0
          8.42496142    3.32640369    4.86890675    o      8.000     0
         -9.93488931    3.08634069   -2.11658740    o      8.000     0
         10.00966540   -0.22638470    3.44409661    o      8.000     0
        -10.03345106   -0.42116704   -4.31341367    o      8.000     0
         -1.23311442    5.24258805    2.66042261    o      8.000     0
         -1.88200223   -3.96628913   -2.95640597    h      1.000     0
          7.20527260   -2.78695597    0.97888817    h      1.000     0
         -6.28296752   -2.89783528   -4.21741311    h      1.000     0
          4.00600067    4.11716410    3.86889712    h      1.000     0
         -6.00514218    4.01303281    0.03652010    h      1.000     0
 
       center of nuclear mass  :    0.16377723    0.03688449    0.09262142
       center of nuclear charge:    0.15220960    0.03152625    0.08409350

              +--------------------------------------------------+
              |               basis set information              |
              +--------------------------------------------------+

              we will work with the 1s 3p 5d 7f 9g ... basis set
              ...i.e. with spherical basis functions...

   type   atoms  prim   cont   basis
   ---------------------------------------------------------------------------
    c       13     77     55   cc-pVQZ   [5s4p3d2f1g|21s6p3d2f1g]
    n        3     77     55   cc-pVQZ   [5s4p3d2f1g|21s6p3d2f1g]
    o        7     77     55   cc-pVQZ   [5s4p3d2f1g|21s6p3d2f1g]
    h        5     32     30   cc-pVQZ   [4s3p2d1f|6s3p2d1f]
   ---------------------------------------------------------------------------
   total:   28   1931   1415
   ---------------------------------------------------------------------------

   total number of primitive shells          :  111
   total number of contracted shells         :  395
   total number of cartesian basis functions : 1785
   total number of SCF-basis functions       : 1415


 symmetry group of the molecule :   c1 

 the group has the following generators :
   c1(z)

    1 symmetry operations found

 there are 1 real representations :   a   


   =========================================================================


     restricted closed shell calculation for the wavefunction models:
               MP2        - Second Order Moeller Plesset PT


     global parameters for ricc2 program:

        hard restart (reuse of interm.) :  disabled
        soft restart (reuse of vectors) :  disabled
        threshold for vector function   :    0.100000E-05
        convergence threshold energy    :    0.100000E-06
        linear dependence threshold     :    0.100000E-13
        global print level              :      1
        maximum number of iterations    :   300
        maximum number DIIS vectors     :    10
        max. dim. of reduced space      :   100
        core memory limit (MB)          : 15258


     MP2 energy only: Energy will be calculated directly from T2 amplitudes!

     Scratch Directory : 


   =========================================================================

    der. integral neglect threshold  :  0.10E-07
    integral neglect threshold       :  0.19E-11
    integral storage threshold THIZE :  0.10E-04
    integral storage threshold THIME :         5


                  +------------------------------------------+
                  |     Auxiliary basis set information      |
                  +------------------------------------------+

              we will work with the 1s 3p 5d 7f 9g ... basis set
              ...i.e. with spherical basis functions...

   type   atoms  prim   cont   basis
   ---------------------------------------------------------------------------
    c       13    132    132   cc-pVQZ   [8s7p6d5f3g1h|8s7p6d5f3g1h]
    n        3    132    132   cc-pVQZ   [8s7p6d5f3g1h|8s7p6d5f3g1h]
    o        7    132    132   cc-pVQZ   [8s7p6d5f3g1h|8s7p6d5f3g1h]
    h        5     55     55   cc-pVQZ   [5s4p3d2f1g|5s4p3d2f1g]
   ---------------------------------------------------------------------------
   total:   28   3311   3311
   ---------------------------------------------------------------------------

   total number of primitive shells          :  105
   total number of contracted shells         :  765
   total number of cartesian basis functions : 4513
   total number of SCF-basis functions       : 3311


 maximum number of shells which are related by symmetry :  1


 The symmetry information takes   1 MB

*---------------------------------------------------------------------*
|               simplified C1 algorithm will be applied               |
*---------------------------------------------------------------------*
  MOs are in ASCII format !


 reading orbital data $scfmo  from file mos
 orbital characterization : scfconv=9



              +--------------------------------------------+
              | list of orbitals that will be kept frozen: |
              +--------------------------------------------+
              |   irrep   index      energy     occ/vir    |
              +--------------------------------------------+
              |   a         1      -20.6461     occupied   |
              |   a         2      -20.6427     occupied   |
              |   a         3      -20.6334     occupied   |
              |   a         4      -20.6328     occupied   |
              |   a         5      -20.6240     occupied   |
              |   a         6      -20.6235     occupied   |
              |   a         7      -20.6012     occupied   |
              |   a         8      -15.8966     occupied   |
              |   a         9      -15.8869     occupied   |
              |   a        10      -15.8765     occupied   |
              |   a        11      -11.3901     occupied   |
              |   a        12      -11.3702     occupied   |
              |   a        13      -11.3597     occupied   |
              |   a        14      -11.3567     occupied   |
              |   a        15      -11.3466     occupied   |
              |   a        16      -11.3390     occupied   |
              |   a        17      -11.3328     occupied   |
              |   a        18      -11.3307     occupied   |
              |   a        19      -11.3148     occupied   |
              |   a        20      -11.3143     occupied   |
              |   a        21      -11.3123     occupied   |
              |   a        22      -11.3038     occupied   |
              |   a        23      -11.3010     occupied   |
              +--------------------------------------------+



   Molecular Orbital Statistic:
   ============================

   -----------------------------
   orbitals in total:
   -----------------------------
    frozen occupied :     23
    active occupied :     57
    active virtual  :   1335
    frozen virtual  :      0
    all together    :   1415
   -----------------------------


     time in riccmos       cpu:  8.17 sec    wall:  2.83 sec    ratio:  2.9

     total memory allocated for calculation of (Q|P)**(-1/2) : 126 MiB


     calculation of (P|Q) ...
     time in lp2sym        cpu:  2.80 sec    wall:  0.37 sec    ratio:  7.5


     calculation of the Cholesky decomposition of (P|Q)**(-1) ...
     time in invmetri      cpu: 13.22 sec    wall:  1.96 sec    ratio:  6.7

   threshold for RMS(d[D]) in SCF was     :  0.10E-06
   integral neglect threshold             :  0.19E-11
   derivative integral neglect threshold  :  0.10E-07


   =========================================================================

     Energy of reference wave function is -1182.6895944240000
     Maximum orbital residual is           0.1165748300681E-05


     Number of symmetry-nonredundant auxiliary basis functions:     3311

     Block lengths for integral files:
        frozen occupied (BOI):        1 MiB
        active occupied (BJI):        2 MiB
        active virtual  (BAI):       34 MiB
        frozen virtual  (BGI):        0 MiB
               general  (BTI):       36 MiB

   =========================================================================




   **************************************************************************
   *                                                                        *
   *          OPTIMIZATION OF THE GROUND STATE CLUSTER AMPLITUDES           *
   *                                                                        *
   **************************************************************************


   Iter.   MP2 energy       Norm(Omega)    Norm(t1)  Norm(t2)     cpu    wall
   ...........................................................................
    1  -1187.2618152172     ------          0.00000   0.69095   27.85    3.52
   ...........................................................................


     time in total         cpu: 27 min 51 s  wall:  3 min 31 s  ratio:  7.9


     **********************************************************************
     *                                                                    *
     *   RHF  energy                             :  -1182.6895944240      *
     *   MP2 correlation energy (doubles)        :     -4.5722207932      *
     *                                                                    *
     *   Final MP2 energy                        :  -1187.2618152172      *
     *                                                                    *
     *    E(S)   =     -2.7638837390      E(T)   =     -1.8083370543      *
     *    E(OS)  =     -3.3666627570      E(SS)  =     -1.2055580362      *
     *                                                                    *
     *   SCS-MP2 energy                          :  -1187.1314424112      *
     *   (computed with  C(OS) =   1.2000  and  C(SS) =   0.3333)         *
     *                                                                    *
     *   SOS-MP2 energy                          :  -1187.0662560082      *
     *   (computed with  C(OS) =   1.3000)                                *
     *                                                                    *
     *   Norm of MP1 T2 amplitudes               :      0.6909524331      *
     *                                                                    *
     **********************************************************************



    ------------------------------------------------------------------------
         total  cpu-time : 34 minutes and 37 seconds
         total wall-time :  4 minutes and 28 seconds
    ------------------------------------------------------------------------

   ****  ricc2 : all done  ****


    2018-04-03 13:49:06.458 

