Using Slurm to start processes with PMI2
STARTING ridft ON 8 PROCESSORS!
RUNNING PROGRAM /beegfs/modfac/apps/TURBOMOLE/7.0_intel_GA/bin/em64t-unknown-linux-gnu_mpi/ridft_mpi.
PLEASE WAIT UNTIL ridft HAS FINISHED.
Look for the output in slave1.output.
  this is node-proc. number 1 running on node c-7-18.local
  the total number of node-proc. spawned is            8
  parallel platform: MPP, or cluster with fast interconnect

 ridft (c-7-18.local) : TURBOMOLE V7.0.2( ) 15 Jan 2016 at 17:47:42
 Copyright (C) 2016 TURBOMOLE GmbH, Karlsruhe


    2017-10-30 01:01:30.370 



                                  r i d f t

                        DFT program with RI approximation 
                                for coulomb part 




                                                 
                                 References:     
                                                 
          TURBOMOLE:                             
              R. Ahlrichs, M. Baer, M. Haeser, H. Horn, and
              C. Koelmel
              Electronic structure calculations on workstation
              computers: the program system TURBOMOLE
              Chem. Phys. Lett. 162: 165 (1989)
          Density Functional:                              
              O. Treutler and R. Ahlrichs                      
              Efficient Molecular Numerical Integration Schemes
              J. Chem. Phys. 102: 346 (1995)                   
          Parallel Version:                                
              Performance of parallel TURBOMOLE for Density    
              Functional Calculations                          
              M. v. Arnim and R. Ahlrichs                      
              J. Comp. Chem. 19: 1746 (1998)                   
          RI-J Method:                                     
              Auxiliary Basis Sets to approximate Coulomb      
              Potentials                                       
              Chem. Phys. Lett. 240: 283 (1995)                
              K. Eichkorn, O. Treutler, H. Oehm, M. Haeser     
              and R. Ahlrichs                                  
              Chem. Phys. Lett. 242: 652 (1995)                
                                                           
              Auxiliary Basis Sets for Main Row Atoms and their
              Use to approximate Coulomb Potentials            
              K. Eichkorn, F. Weigend, O. Treutler and         
              R. Ahlrichs                                      
              Theo. Chem. Acc. 97: 119 (1997)                   
                                                           
              Accurate Coulomb-fitting basis sets for H to Rn 
              F. Weigend                                        
              Phys. Chem. Chem. Phys. 8: 1057 (2006)            
                                                           
          Multipole accelerated RI-J (MARI-J):             
              Fast evaluation of the Coulomb potential for     
              electron densities using multipole accelerated   
              resolution of identity approximation             
              M. Sierka, A. Hogekamp and R. Ahlrichs           
              J. Chem. Phys. 118: 9136 (2003)                  
          RI-JK Method:                                     
              A fully direct RI-HF algorithm: Implementation,
              optimised auxiliary basis sets, demonstration of
              accuracy and efficiency                         
              F. Weigend                                      
              Phys. Chem. Chem. Phys. 4: 4285 (2002)           
          Two-component HF and DFT with spin-orbit coupling:  
              Self-consistent treatment of spin-orbit         
              interactions with efficient Hartree-Fock and    
              density functional methods                      
              M. K. Armbruster, F. Weigend, C. van Wüllen and 
              W. Klopper                                      
              Phys. Chem. Chem. Phys. 10: 1748 (2008)         
          Relativistic all-electron 2c calculations           
              An efficient implementation of two-component    
              relativistic exact-decoupling methods for large 
              molecules                                       
              D. Peng, N. Middendorf, F. Weigend, M. Reiher   
              J. Chem. Phys. 138, 184105 (2013)               
                                         


 


              +--------------------------------------------------+
              |      general information about current run       |
              +--------------------------------------------------+

 

 SCF run will be profiled !


 DENSITY CONVERGENCE CHECK SWITCHED ON !
 SCF CONVERGENCE IF RMS(delta[D]) <     0.1000000000E-06

 TPSS meta-GGA functional
 exchange:    LDA + TPSS
 correlation: LDA (PW) + TPSS
 A DFT calculation using the RI-J approximation will be carried out.
 Allocatable memory for RI due to $ricore (MB):       10000


              +--------------------------------------------------+
              | Atomic coordinate, charge and isotop information |
              +--------------------------------------------------+

                    atomic coordinates            atom    charge  isotop
         -3.54794406    3.26913394    0.00000000    c      6.000     0
          1.04499575   -4.70983313    0.00000000    c      6.000     0
         -2.72575688    7.24691791    0.00000000    c      6.000     0
          4.89750688   -5.99725688    0.00000000    c      6.000     0
         -5.38673981    7.02714176    0.00000000    c      6.000     0
          3.37066441   -8.18767082    0.00000000    c      6.000     0
         -5.86203274    4.42500034    0.00000000    n      7.000     0
          0.88191148   -7.29142139    0.00000000    n      7.000     0
         -3.31203195    0.63510525    0.00000000    n      7.000     0
         -1.11416405   -3.18256726    0.00000000    n      7.000     0
         -1.04918789   -0.60361236    0.00000000    c      6.000     0
          6.99524387  -10.79578234    0.00000000    c      6.000     0
         -5.82106142   11.47137485    0.00000000    c      6.000     0
         -3.17314352   11.72247429    0.00000000    c      6.000     0
          8.54263898   -8.63241083    0.00000000    c      6.000     0
          7.52817008   -6.20786701    0.00000000    c      6.000     0
         -1.58629995    9.62728862    0.00000000    c      6.000     0
         -6.98920670    9.11264205    0.00000000    c      6.000     0
          4.36888304  -10.62089999    0.00000000    c      6.000     0
          1.09609376    0.63187794    0.00000000    n      7.000     0
         -1.63006515    4.84204563    0.00000000    n      7.000     0
          3.36849507   -3.84176942    0.00000000    n      7.000     0
          0.96183124    2.58807143    0.00000000    h      1.000     0
          2.72079142   -0.46585828    0.00000000    h      1.000     0
         -2.81618184   -4.05068353    0.00000000    h      1.000     0
         -4.91757120   -0.40070721    0.00000000    h      1.000     0
         -7.58538356    3.59967887    0.00000000    h      1.000     0
         -0.69731842   -8.36710442    0.00000000    h      1.000     0
         -2.35486292   13.60269173    0.00000000    h      1.000     0
         10.57949694   -8.86947682    0.00000000    h      1.000     0
          7.86984698  -12.65042618    0.00000000    h      1.000     0
         -6.98538743   13.15929293    0.00000000    h      1.000     0
          8.72057845   -4.54063690    0.00000000    h      1.000     0
          0.45433697    9.82064699    0.00000000    h      1.000     0
          3.18446404  -12.29483008    0.00000000    h      1.000     0
         -9.03160987    8.92943031    0.00000000    h      1.000     0
 
       center of nuclear mass  :   -0.04874018   -0.02807757    0.00000000
       center of nuclear charge:   -0.04631992   -0.02668087    0.00000000

              +--------------------------------------------------+
              |               basis set information              |
              +--------------------------------------------------+

              we will work with the 1s 3p 5d 7f 9g ... basis set
              ...i.e. with spherical basis functions...

   type   atoms  prim   cont   basis
   ---------------------------------------------------------------------------
    c       15     77     55   cc-pVQZ   [5s4p3d2f1g|21s6p3d2f1g]
    n        7     77     55   cc-pVQZ   [5s4p3d2f1g|21s6p3d2f1g]
    h       14     32     30   cc-pVQZ   [4s3p2d1f|6s3p2d1f]
   ---------------------------------------------------------------------------
   total:   36   2142   1630
   ---------------------------------------------------------------------------

   total number of primitive shells          :   78
   total number of contracted shells         :  470
   total number of cartesian basis functions : 2030
   total number of SCF-basis functions       : 1630


 integral neglect threshold       :  0.16E-13
 integral storage threshold THIZE :  0.10E-04
 integral storage threshold THIME :         5

 RI-J AUXILIARY BASIS SET information:

              we will work with the 1s 3p 5d 7f 9g ... basis set
              ...i.e. with spherical basis functions...

   type   atoms  prim   cont   basis
   ---------------------------------------------------------------------------
    c       15     70     49   cc-pVQZ   [6s4p3d1f1g|12s5p4d2f1g]
    n        7     70     49   cc-pVQZ   [6s4p3d1f1g|12s5p4d2f1g]
    h       14     16     11   cc-pVQZ   [3s1p1d|5s2p1d]
   ---------------------------------------------------------------------------
   total:   36   1764   1232
   ---------------------------------------------------------------------------

   total number of primitive shells          :   56
   total number of contracted shells         :  400
   total number of cartesian basis functions : 1510
   total number of SCF-basis functions       : 1232


 symmetry group of the molecule :   c1 

 the group has the following generators :
   c1(z)

    1 symmetry operations found

 there are 1 real representations :   a   

 maximum number of shells which are related by symmetry :  1


    mo occupation :
   irrep   mo's   occupied
    a     1630       76
 
 number of basis functions   :         1630
 number of occupied orbitals :           76
 
  
           ------------------
           density functional
           ------------------
 TPSS meta-GGA functional
 exchange:    LDA + TPSS
 correlation: LDA (PW) + TPSS
 grinp -> nfun, dfgga, dfhybrid 
           5 F F
 iterations will be done with small grid
  
 spherical integration : Lebedev's spherical grid
 spherical gridsize    :           5
    i.e. gridpoints    :         590
 value for diffuse not defined
 radial integration    : Chebyshev 2nd kind (scaling 3)
 radial gridsize       :           8
 integration cells     :          36
 partition function    : becke
 partition sharpness   :           3
  

 <rddim> : input of entry tasksize
           from data group '$pardft' failed !

               Default values taken

 <rddim> : input of entry memdiv
           from data group '$pardft' failed !

               Default values taken
  RIDFT: memory allocation for DFT gridpoints
  MEMORY is divided by 1 as DEFAULT
 Each node can hold at most  the            1 -th part
 of the gridpoints    

 biggest AO integral is expected to be     4.161848376
  
           ------------------------
               RI-J - INFORMATION
           ------------------------
 
 
 **************************************************
 *      MEMORY ALLOCATION FOR PARALLEL RI-DFT     *
 **************************************************
 
 
MEMORY FOR (MU NU/ ALPHA), SEQUENTIAL RUN               9988 MByte
 
            DIFFERENCE IN MEMORY NEED:       DIAG./SLAVE  
 
      TOTAL DIFFERENCE :                    121 MByte
 
      difference in xcore:                   13 MByte
      difference in fatmat:                  36 MByte
      getcor calls skipped by slaves:        73 MByte
 
 
           Integral memory available for diagonal.      9988 MByte
 
           Integral memory available for slave             0 MByte
 
         MEMORY FOR (MU NU/ ALPHA) ON DIAGONALIZER      9988 MByte
 
         MEMORY FOR (MU NU/ ALPHA) ON ONE SLAVE            0 MByte
 
         TOTAL MEMORY FOR (MU NU/ ALPHA),ALL NODES      9988 MByte
 
 Contributions to RI integral batches: 
  neglected integral batches:       56466
  direct contribution:               3103
  memory contribution:       51116
 Memory core needed for (P|Q) and Cholesky     12 MByte
 Memory core minimum needed except of (P|Q)     8 MByte
 Total minimum memory core needed (sum)        20 MByte
     number of direct tasks:         160
  
 ****************************************
 Memory allocated for RI-J 10007 MByte
 ****************************************
                                            

          ------------------------
          nuclear repulsion energy  :   1592.94845557    
          ------------------------

 
          -----------------
          -S integrals
          -----------------

 1e-integrals will be neglected if expon. factor < 0.164629E-14
 
          -----------------
          -T+V integrals
          -----------------

 1e-integrals will be neglected if expon. factor < 0.164629E-14
 Difference densities >>NOT<< switched on in parallel ridft!

 automatic virtual orbital shift switched on 
      shift if e(lumo)-e(homo) < 0.10000000    


 DIIS switched on: error vector is FDS-SDF
 Max. Iterations for DIIS is     :   4
 DIIS matrix (see manual) 
    Scaling factor of diagonals  :  1.200
    threshold for scaling factor :  0.000

 scf convergence criterion : increment of total energy < .1000000D-08
                  and increment of one-electron energy < .1000000D-05


 <geterg> : there is no data group $energy 

  MOs are in ASCII format !


 reading orbital data $scfmo  from file mos . 

 orbital characterization : expanded
 
 mo provided and orthogonalized by Cholesky decomposition

 DSCF restart information will be dumped onto file mos


 Starting SCF iterations


 ITERATION  ENERGY          1e-ENERGY        2e-ENERGY     RMS[dD(SAO)]   TOL
   1  -960.11928267766    -4413.6155637     1860.5478255    0.000D+00 0.164D-13
                            Exc = -132.748571325     Coul =  1993.29639679    
                              N = 152.00005880    
                            current damping = 0.700
 
          max. resid. norm for Fia-block=  3.226D-01 for orbital      2a         
          max. resid. fock norm         =  7.805D+00 for orbital   1515a         

 ITERATION  ENERGY          1e-ENERGY        2e-ENERGY     RMS[dD(SAO)]   TOL
   2  -963.00255536313    -4436.8598901     1880.9088792    0.388D-02 0.164D-13
                            Exc = -134.257158068     Coul =  2015.16603723    
                              N = 152.00006088    
                            current damping = 0.650
 
          Norm of current diis error:  5.5153    
          max. resid. norm for Fia-block=  1.426D-01 for orbital      7a         
          max. resid. fock norm         =  2.428D-01 for orbital   1572a         

 ITERATION  ENERGY          1e-ENERGY        2e-ENERGY     RMS[dD(SAO)]   TOL
   3  -963.50618983762    -4443.3391207     1886.8844753    0.166D-02 0.164D-13
                            Exc = -134.878129758     Coul =  2021.76260510    
                              N = 152.00005878    
                            current damping = 0.550
 
          Norm of current diis error:  2.6737    
          max. resid. norm for Fia-block=  5.826D-02 for orbital     25a         
          max. resid. fock norm         =  7.625D-02 for orbital    864a         

 ITERATION  ENERGY          1e-ENERGY        2e-ENERGY     RMS[dD(SAO)]   TOL
   4  -963.66618974761    -4447.0355652     1890.4209199    0.718D-03 0.164D-13
                            Exc = -135.096743693     Coul =  2025.51766360    
                              N = 152.00005922    
                            current damping = 0.450
 
          Norm of current diis error:  1.0397    
          max. resid. norm for Fia-block=  2.914D-02 for orbital     28a         
          max. resid. fock norm         =  5.969D-02 for orbital   1291a         

 ITERATION  ENERGY          1e-ENERGY        2e-ENERGY     RMS[dD(SAO)]   TOL
   5  -963.68582968425    -4449.0464214     1892.4121361    0.282D-03 0.164D-13
                            Exc = -135.271361661     Coul =  2027.68349780    
                              N = 152.00006144    
                            current damping = 0.350
 
          Norm of current diis error: 0.66983    
          max. resid. norm for Fia-block=  1.437D-02 for orbital     72a         
          max. resid. fock norm         =  2.018D-02 for orbital     29a         
          mo-orthogonalization: Cholesky decomposition

 ITERATION  ENERGY          1e-ENERGY        2e-ENERGY     RMS[dD(SAO)]   TOL
   6  -963.69618743716    -4449.2010642     1892.5564212    0.206D-03 0.164D-13
                            Exc = -135.289605975     Coul =  2027.84602716    
                              N = 152.00006184    
                            current damping = 0.200
 
          Norm of current diis error: 0.28001    
          max. resid. norm for Fia-block=  4.422D-03 for orbital     67a         
          max. resid. fock norm         =  8.725D-03 for orbital   1427a         

 ITERATION  ENERGY          1e-ENERGY        2e-ENERGY     RMS[dD(SAO)]   TOL
   7  -963.69746509255    -4449.3672710     1892.7213503    0.524D-04 0.164D-13
                            Exc = -135.288202050     Coul =  2028.00955238    
                              N = 152.00006192    
                            current damping = 0.050
 
          Norm of current diis error: 0.16232    
          max. resid. norm for Fia-block=  2.336D-03 for orbital     75a         
          max. resid. fock norm         =  5.348D-03 for orbital   1618a         

 ITERATION  ENERGY          1e-ENERGY        2e-ENERGY     RMS[dD(SAO)]   TOL
   8  -963.69793091097    -4449.3733911     1892.7270046    0.258D-04 0.164D-13
                            Exc = -135.299003279     Coul =  2028.02600789    
                              N = 152.00006217    
                            current damping = 0.050
 
          Norm of current diis error: 0.79166E-01
          max. resid. norm for Fia-block=  1.363D-03 for orbital     75a         
          max. resid. fock norm         =  3.190D-03 for orbital   1623a         

 ITERATION  ENERGY          1e-ENERGY        2e-ENERGY     RMS[dD(SAO)]   TOL
   9  -963.69803628873    -4449.4254174     1892.7789255    0.124D-04 0.164D-13
                            Exc = -135.301603478     Coul =  2028.08052898    
                              N = 152.00006215    
                            current damping = 0.050
 
          Norm of current diis error: 0.42615E-01
          max. resid. norm for Fia-block=  7.032D-04 for orbital     75a         
          max. resid. fock norm         =  1.579D-03 for orbital   1623a         

 ITERATION  ENERGY          1e-ENERGY        2e-ENERGY     RMS[dD(SAO)]   TOL
  10  -963.69806822361    -4449.3881160     1892.7415922    0.651D-05 0.164D-13
                            Exc = -135.297339579     Coul =  2028.03893178    
                              N = 152.00006212    
                            current damping = 0.100
 
          Norm of current diis error: 0.21123E-01
          max. resid. norm for Fia-block=  3.246D-04 for orbital     72a         
          max. resid. fock norm         =  5.105D-04 for orbital     71a         
          mo-orthogonalization: Cholesky decomposition

 ITERATION  ENERGY          1e-ENERGY        2e-ENERGY     RMS[dD(SAO)]   TOL
  11  -963.69807640571    -4449.3905651     1892.7440331    0.377D-05 0.164D-13
                            Exc = -135.298189365     Coul =  2028.04222248    
                              N = 152.00006214    
                            current damping = 0.150
 
          Norm of current diis error: 0.93791E-02
          max. resid. norm for Fia-block=  1.666D-04 for orbital     72a         
          max. resid. fock norm         =  2.958D-04 for orbital   1449a         

 ITERATION  ENERGY          1e-ENERGY        2e-ENERGY     RMS[dD(SAO)]   TOL
  12  -963.69807793987    -4449.3922285     1892.7456950    0.190D-05 0.164D-13
                            Exc = -135.298407309     Coul =  2028.04410234    
                              N = 152.00006214    
                            current damping = 0.050
 
          Norm of current diis error: 0.49375E-02
          max. resid. norm for Fia-block=  7.666D-05 for orbital     68a         
          max. resid. fock norm         =  1.312D-04 for orbital     29a         

 ITERATION  ENERGY          1e-ENERGY        2e-ENERGY     RMS[dD(SAO)]   TOL
  13  -963.69807840662    -4449.3955756     1892.7490416    0.814D-06 0.164D-13
                            Exc = -135.298496313     Coul =  2028.04753793    
                              N = 152.00006214    
                            current damping = 0.050
 
          Norm of current diis error: 0.21315E-02
          max. resid. norm for Fia-block=  2.887D-05 for orbital     75a         
          max. resid. fock norm         =  5.277D-05 for orbital   1614a         

 ITERATION  ENERGY          1e-ENERGY        2e-ENERGY     RMS[dD(SAO)]   TOL
  14  -963.69807848280    -4449.3930393     1892.7465053    0.337D-06 0.164D-13
                            Exc = -135.298349720     Coul =  2028.04485500    
                              N = 152.00006214    
                            current damping = 0.100
 
          Norm of current diis error: 0.10806E-02
          max. resid. norm for Fia-block=  1.694D-05 for orbital     75a         
          max. resid. fock norm         =  3.475D-05 for orbital   1623a         

 ITERATION  ENERGY          1e-ENERGY        2e-ENERGY     RMS[dD(SAO)]   TOL
  15  -963.69807850575    -4449.3929481     1892.7464140    0.168D-06 0.164D-13
                            Exc = -135.298374235     Coul =  2028.04478827    
                              N = 152.00006214    
                            current damping = 0.050
 
          Norm of current diis error: 0.43436E-03
          max. resid. norm for Fia-block=  7.419D-06 for orbital     75a         
          max. resid. fock norm         =  1.673D-05 for orbital   1623a         
          mo-orthogonalization: Cholesky decomposition

 DENSITY CONVERGED !


 ITERATION  ENERGY          1e-ENERGY        2e-ENERGY     RMS[dD(SAO)]   TOL
  16  -963.69807850877    -4449.3938475     1892.7473135    0.732D-07 0.164D-13
                            Exc = -135.298402424     Coul =  2028.04571589    
                              N = 152.00006214    
                            current damping = 0.100
 
          Norm of current diis error: 0.25612E-03
          max. resid. norm for Fia-block=  3.472D-06 for orbital     75a         
          max. resid. fock norm         =  7.655D-06 for orbital   1622a         

 DENSITY CONVERGED !


 ITERATION  ENERGY          1e-ENERGY        2e-ENERGY     RMS[dD(SAO)]   TOL
  17  -963.69807851001    -4449.3935152     1892.7469811    0.368D-07 0.164D-13
                            Exc = -135.298393649     Coul =  2028.04537475    
                              N = 152.00006214    
                            current damping = 0.150
 
          Norm of current diis error: 0.11273E-03
          max. resid. norm for Fia-block=  1.942D-06 for orbital     72a         
          max. resid. fock norm         =  3.211D-06 for orbital   1277a         

 DENSITY CONVERGED !


 ITERATION  ENERGY          1e-ENERGY        2e-ENERGY     RMS[dD(SAO)]   TOL
  18  -963.69807851027    -4449.3934440     1892.7469099    0.230D-07 0.164D-13
                            Exc = -135.298388000     Coul =  2028.04529789    
                              N = 152.00006214    
                            current damping = 0.050
 
          Norm of current diis error: 0.49588E-04
          max. resid. norm for Fia-block=  8.278D-07 for orbital     68a         
          max. resid. fock norm         =  1.475D-06 for orbital   1449a         

 DENSITY CONVERGED !


 ITERATION  ENERGY          1e-ENERGY        2e-ENERGY     RMS[dD(SAO)]   TOL
  19  -963.69807851031    -4449.3934904     1892.7469563    0.986D-08 0.164D-13
                            Exc = -135.298390623     Coul =  2028.04534693    
                              N = 152.00006214    
                            current damping = 0.100
 
          Norm of current diis error: 0.28278E-04
          max. resid. norm for Fia-block=  3.977D-07 for orbital     68a         
          max. resid. fock norm         =  8.689D-07 for orbital   1629a         

 ENERGY & DENSITY CONVERGED !


 ITERATION  ENERGY          1e-ENERGY        2e-ENERGY     RMS[dD(SAO)]   TOL
  20  -963.69769620051    -4449.3934957     1892.7473439    0.387D-08 0.164D-13
                            Exc = -135.298008796     Coul =  2028.04535272    
                              N = 152.00001701    
                            current damping = 0.050
 
          Norm of current diis error: 0.97652E-05
          max. resid. norm for Fia-block=  1.077D-07 for orbital     75a         
          max. resid. fock norm         =  2.234D-07 for orbital   1614a         

 End of SCF iterations

   convergence criteria satisfied after   20 iterations


                  ------------------------------------------ 
                 |  total energy      =   -963.69769620051  |
                  ------------------------------------------ 
                 :  kinetic energy    =    959.41209362923  :
                 :  potential energy  =  -1923.10978982975  :
                 :  virial theorem    =      1.99555295962  :
                 :  wavefunction norm =      1.00000000000  :
                  .......................................... 


 <geterg> : there is no data group $energy 


 <skperg> : $end is missing 


 orbitals $scfmo  will be written to file mos

    irrep                 72a         73a         74a         75a         76a   
 eigenvalues H         -0.37451    -0.32051    -0.31863    -0.31793    -0.30925
            eV         -10.1911     -8.7215     -8.6703     -8.6515     -8.4152
 occupation              2.0000      2.0000      2.0000      2.0000      2.0000 

    irrep                 77a         78a         79a         80a         81a   
 eigenvalues H         -0.19398    -0.16059    -0.14828    -0.13368    -0.12466
            eV          -5.2785     -4.3699     -4.0350     -3.6377     -3.3923
 
 
 ! grave: sending quit signal to master process
 
 
 
 
 ==============================================================================
                           electrostatic moments
 ==============================================================================

 reference point for electrostatic moments:    0.00000   0.00000   0.00000

 
              nuc           elec       ->  total
 ------------------------------------------------------------------------------
                          charge      
 ------------------------------------------------------------------------------
         153.000000    -152.000000       1.000000
 
 ------------------------------------------------------------------------------
                       dipole moment  
 ------------------------------------------------------------------------------
   x      -7.086948       4.435701      -2.651247
   y      -4.082173       2.557618      -1.524555
   z       0.000000       0.000000       0.000000
 
   | dipole moment | =     3.0583 a.u. =     7.7735 debye 
 
 ------------------------------------------------------------------------------
                     quadrupole moment
 ------------------------------------------------------------------------------
  xx    3209.917964   -3264.551954     -54.633991
  yy    8056.161155   -8093.376843     -37.215688
  zz       0.000000     -97.544860     -97.544860
  xy   -4171.409027    4156.415704     -14.993323
  xz       0.000000      -0.000000      -0.000000
  yz       0.000000       0.000000       0.000000
 
     1/3  trace=     -63.131513
     anisotropy=      59.720798
 
 ==============================================================================
 

    ridft profiling
  --------------------------------------------------------------------
             module   cpu total (s)       %  wall total (s)       %

               RIDFT          1222.5  100.00          1221.8  100.00
         Ridft_b_scf            54.3    4.44            54.3    4.44
        b_scf_prelim             0.0    0.00             0.0    0.00
        b_scf_molinp             0.0    0.00             0.0    0.00
         b_scf_init0             0.0    0.00             0.0    0.00
        b_scf_auxbas             0.0    0.00             0.0    0.00
      b_scf_symmetry             0.0    0.00             0.0    0.00
         b_scf_cosmo             0.0    0.00             0.0    0.00
        b_scf_params             4.3    0.36             4.3    0.36
          b_scf_ri-j            38.2    3.12            38.2    3.12
    b_scf_ri-j_auxpq            38.2    3.12            38.1    3.12
     ri-j_auxpq_chol             0.3    0.03             0.3    0.03
         b_scf_1elec             1.2    0.10             1.2    0.10
       b_scf_moinput            10.6    0.86            10.6    0.86
     moinput_orthmos            10.4    0.85            10.4    0.85
    b_scf_dft-dstmax             0.0    0.00             0.0    0.00
           Ridft_scf          1167.8   95.53          1167.1   95.53
          Scf_b_loop             0.0    0.00             0.0    0.00
                noga             0.0    0.00             0.0    0.00
            Scf_loop          1165.9   95.38          1165.2   95.37
     scf_loop_mkdmat             3.8    0.31             3.8    0.31
       scf_loop_ri-j            42.9    3.51            42.9    3.51
      parlp1.bc.dens             1.2    0.10             1.2    0.10
        parlp1.gs.gp             0.0    0.00             0.0    0.00
        parlp2.bc.gq             0.0    0.00             0.0    0.00
        scf_loop_dft           970.7   79.40           970.1   79.40
      pardft.bc.dens             0.0    0.00             0.0    0.00
        dft_grid_con             0.6    0.05             0.6    0.05
          dft_xcmrhf           957.9   78.35           957.3   78.35
          dft_getval            14.8    1.21            14.7    1.20
          funct2 dst             0.2    0.02             0.2    0.01
      funct2 f2loop1             4.2    0.34             4.2    0.34
      funct2 f2loop2             5.5    0.45             5.4    0.44
          funct2 s+c             4.5    0.37             4.5    0.37
        funct2 cmf_2             3.9    0.32             3.9    0.32
          dft_mkdens           464.0   37.95           463.7   37.95
        dft_mgga-fun             0.7    0.06             0.7    0.06
          dft_mkfock           478.0   39.10           477.7   39.10
     pardft.red.fock            76.2    6.23            76.1    6.23
     scf_loop_energy             0.0    0.00             0.0    0.00
     scf_loop_mkfock             0.1    0.01             0.1    0.01
       scf_loop_diis            66.4    5.43            66.4    5.43
       scf_loop_diag            40.1    3.28            40.0    3.28
         diag_tritrn            12.2    1.00            12.2    1.00
          diag_rdiag            27.7    2.26            27.7    2.27
     scf_loop_modump            31.6    2.58            31.6    2.58
      scf_loop_ortho             9.2    0.75             9.2    0.75
          Scf_a_loop             1.9    0.15             1.9    0.15
         Ridft_a_scf             0.4    0.03             0.4    0.03
         a_scf_fanal             0.3    0.03             0.4    0.03
 


    ------------------------------------------------------------------------
         total  cpu-time : 20 minutes and 25 seconds
         total wall-time : 20 minutes and 24 seconds
    ------------------------------------------------------------------------


   ****  ridft : all done  ****


    2017-10-30 01:21:54.532 

