
   OpenMP run-time library returned nthreads = 28

 rirpa (c-14-37) : TURBOMOLE V7.3.1 () 25 Feb 2019 at 10:13:53
 Copyright (C) 2019 TURBOMOLE GmbH, Karlsruhe


    2019-11-27 01:51:50.136 

 
 
    *************************************************************************
    *************************** PROGRAM RIRPA *******************************
    ******                                                             ******
    ******              H. Eshuis, J. E. Bates and F. Furche           ******
    ******                                                             ******
    ****** Nov 2011                                                    ******
    ****** Copyright TURBOMOLE GmbH                                    ******
    *************************************************************************
    
    
                                References:                                  
    
                   RIRPA:                                                    
                     H. Eshuis, J. Yarkony and F. Furche                     
                     Fast computation of molecular random phase              
                     approximation correlation energies using resolution     
                     of the identity imaginary frequency integration         
                     J. Chem. Phys. 132: 234114 (2010)                       
    
                     H. Eshuis, J. E. Bates and F. Furche                    
                     Electron correlation methods based on                   
                     the random phase approximation                          
                     Theor. Chem. Acc.  131: 1084 (2012)                     
    
                   TWO-COMPONENT RIRPA:                                      
                     M. Kuehn                                                
                     Correlation energies from the                           
                     two-component random-phase approximation                
                     J. Chem. Theory Comput. 10: 623 (2014)                  
    
                   RIRPA GRADIENTS:                                          
                     Asbjoern M. Burow, Jefferson E. Bates, Filipp Furche*,  
                     and Henk Eshuis                                         
                     Analytical First-Order Molecular Properties and Forces  
                     within the Adiabatic Connection Random Phase            
                     Approximation                                           
                     J. Chem. Theory Comput. 10: 180 (2014)                  
    
    
    
      ... OpenMP parallelization enabled, threads:   28

   *-----------------------------------------------------------------------*
   |                     program will use 28 thread(s)                     |
   *-----------------------------------------------------------------------*
 
                FOUND RI-J FLAG
 
  HF exact exchange energy will be computed using RI-J.
 
  The HXX energy will NOT be computed due to nohxx option. 
 


              +--------------------------------------------------+
              | Atomic coordinate, charge and isotop information |
              +--------------------------------------------------+

                    atomic coordinates            atom    charge  isotop
          0.36987532   -1.59623135    1.55684410    n      7.000     0
          0.85112799   -3.39537099    1.98377392    h      1.000     0
         -2.22808008   -1.08410641    1.43521579    c      6.000     0
         -3.76744541   -2.75194253    1.82717744    o      8.000     0
         -2.79058637    1.53286207    0.82686765    c      6.000     0
         -4.73632628    2.10827408    0.68766131    h      1.000     0
         -0.88460499    3.18033812    0.44387935    c      6.000     0
         -1.20646772    5.14315983   -0.01164846    h      1.000     0
          1.59800634    2.46796558    0.61762016    n      7.000     0
          3.00408357    3.72064255    0.35141308    h      1.000     0
          2.37021068    0.03677760    1.20232686    c      6.000     0
          4.57749189   -0.57016135    1.38305178    o      8.000     0
          1.99691733   -1.63179800    8.31242086    c      0.000     0
          2.85457428   -1.80575909    6.44540440    h      0.000     0
          3.02587794   -2.88653887    9.57702118    h      0.000     0
          2.09955492    1.13844980    9.13055129    c      0.000     0
          3.91046056    2.03209928    8.73234010    h      0.000     0
          1.74406855    1.29272240   11.15864909    h      0.000     0
         -0.10641987    2.29650134    7.67400481    c      0.000     0
          0.41194009    2.46427425    5.68323196    h      0.000     0
         -0.64388524    4.16948662    8.33849680    h      0.000     0
         -2.21713907    0.33577458    7.99720149    c      0.000     0
         -3.58820960    0.38039830    6.46393078    h      0.000     0
         -3.24531190    0.72259615    9.73999880    h      0.000     0
         -0.85079839   -2.24662656    8.19308462    c      0.000     0
         -1.30936793   -3.46390523    6.59936580    h      0.000     0
         -1.44626286   -3.24327269    9.89211172    h      0.000     0
 
       center of nuclear mass  :    0.04821890    0.04989841    3.90307206
       center of nuclear charge:   -0.05224833    0.15684901    1.16144864
              +-------------------------------------------------+
              |        Rotational Constants Section             |
              +-------------------------------------------------+
                                   Center of Mass [a.u]:
               0.04821889899883         0.04989841305396         3.90307206483984
                     Principal Moments of Inertia [a.u.]
            1781.55287111177677      2915.78323926178655      3379.27594439841505
                       Rotational constants A,B,C [a.u.]
               0.00028065403397         0.00017148051106         0.00014796068987
                     Rotational constants A,B,C [cm**-1]
               0.03379056971735         0.02064614601176         0.01781437428815
                        Rotational constants A,B,C [MHz]
            1013.01579527853835       618.95588610934647       534.06150555761826

   * BASIS SET information:

              +--------------------------------------------------+
              |               basis set information              |
              +--------------------------------------------------+

              we will work with the 1s 3p 5d 7f 9g ... basis set
              ...i.e. with spherical basis functions...

   type   atoms  prim   cont   basis
   ---------------------------------------------------------------------------
    n        2     77     55   cc-pVQZ   [5s4p3d2f1g|21s6p3d2f1g]
    h       14     32     30   cc-pVQZ   [4s3p2d1f|6s3p2d1f]
    c        9     77     55   cc-pVQZ   [5s4p3d2f1g|21s6p3d2f1g]
    o        2     77     55   cc-pVQZ   [5s4p3d2f1g|21s6p3d2f1g]
   ---------------------------------------------------------------------------
   total:   27   1449   1135
   ---------------------------------------------------------------------------

   total number of primitive shells          :  111
   total number of contracted shells         :  335
   total number of cartesian basis functions : 1400
   total number of SCF-basis functions       : 1135


   * AUXILIARY BASIS SET information:

              +--------------------------------------------------+
              |               basis set information              |
              +--------------------------------------------------+

              we will work with the 1s 3p 5d 7f 9g ... basis set
              ...i.e. with spherical basis functions...

   type   atoms  prim   cont   basis
   ---------------------------------------------------------------------------
    n        2    132    132   cc-pVQZ   [8s7p6d5f3g1h|8s7p6d5f3g1h]
    h       14     55     55   cc-pVQZ   [5s4p3d2f1g|5s4p3d2f1g]
    c        9    132    132   cc-pVQZ   [8s7p6d5f3g1h|8s7p6d5f3g1h]
    o        2    132    132   cc-pVQZ   [8s7p6d5f3g1h|8s7p6d5f3g1h]
   ---------------------------------------------------------------------------
   total:   27   2486   2486
   ---------------------------------------------------------------------------

   total number of primitive shells          :  105
   total number of contracted shells         :  600
   total number of cartesian basis functions : 3333
   total number of SCF-basis functions       : 2486


   * RIJ AUXILIARY BASIS SET information:

              +--------------------------------------------------+
              |               basis set information              |
              +--------------------------------------------------+

              we will work with the 1s 3p 5d 7f 9g ... basis set
              ...i.e. with spherical basis functions...

   type   atoms  prim   cont   basis
   ---------------------------------------------------------------------------
    n        2     70     49   cc-pVQZ   [6s4p3d1f1g|12s5p4d2f1g]
    h       14     16     11   cc-pVQZ   [3s1p1d|5s2p1d]
    c        9     70     49   cc-pVQZ   [6s4p3d1f1g|12s5p4d2f1g]
    o        2     70     49   cc-pVQZ   [6s4p3d1f1g|12s5p4d2f1g]
   ---------------------------------------------------------------------------
   total:   27   1134    791
   ---------------------------------------------------------------------------

   total number of primitive shells          :   80
   total number of contracted shells         :  265
   total number of cartesian basis functions :  961
   total number of SCF-basis functions       :  791

  No keyword $dft found! - HARTREE FOCK CALCULATION

 reading orbital data $scfmo  from file mos
 orbital characterization : scfconv=9

 integral neglect threshold       :  0.32E+02

 scfconv                     9

 MAXIMUM CORE MEMORY WHICH CAN BE ALLOCATED DYNAMICALLY = 140000 MiB
              ( or 18350080000 double words per process)


 there are 1 real representations :   a   

 maximum number of shells which are related by symmetry :  1

 time elapsed for calculating density matrices :   0.181 sec

     total memory allocated for calculation of (Q|P)**(-1/2) : 71 MiB


     calculation of (P|Q) ...
     time in lp2sym        cpu:  6.65 sec    wall:  0.24 sec    ratio: 28.0


     calculation of the Cholesky decomposition of (P|Q)**(-1) ...
     time in invmetri      cpu: 43.79 sec    wall:  1.91 sec    ratio: 22.9

   threshold for RMS(d[D]) in SCF was     :  0.10E-06
   integral neglect threshold             :  0.10E-13
   derivative integral neglect threshold  :  0.10E-06


 setting up bound for integral derivative estimation

 increment for numerical differentiation : 0.00050000
 total memory allocated for calculation of (Q|P)**(-1/2) : 71 MiB
 Dividing biap into                   3335  block chunks,
 using                    20 MiB per block
 Reserved                  69958 MiB for BLAS routines
 Estimated total memory usage:                 139965 MiB
 number of passes for ispin    1
 =    1
 
 Number of eigenvalues < 6e-3:                      0
 
 
            -----------------------------
            Complex frequency integration
            -----------------------------
 
 Number of Clenshaw-Curtis nodes:                    100
 Optimized scaling parameter    :    2.31246594758143     
 Sensitivity measure            :  -2.277997235289320E-011
 
 Done with rirpa frequency point #                     1
 Done with rirpa frequency point #                     2
 Done with rirpa frequency point #                     3
 Done with rirpa frequency point #                     4
 Done with rirpa frequency point #                     5
 Done with rirpa frequency point #                     6
 Done with rirpa frequency point #                     7
 Done with rirpa frequency point #                     8
 Done with rirpa frequency point #                     9
 Done with rirpa frequency point #                    10
 Done with rirpa frequency point #                    11
 Done with rirpa frequency point #                    12
 Done with rirpa frequency point #                    13
 Done with rirpa frequency point #                    14
 Done with rirpa frequency point #                    15
 Done with rirpa frequency point #                    16
 Done with rirpa frequency point #                    17
 Done with rirpa frequency point #                    18
 Done with rirpa frequency point #                    19
 Done with rirpa frequency point #                    20
 Done with rirpa frequency point #                    21
 Done with rirpa frequency point #                    22
 Done with rirpa frequency point #                    23
 Done with rirpa frequency point #                    24
 Done with rirpa frequency point #                    25
 Done with rirpa frequency point #                    26
 Done with rirpa frequency point #                    27
 Done with rirpa frequency point #                    28
 Done with rirpa frequency point #                    29
 Done with rirpa frequency point #                    30
 Done with rirpa frequency point #                    31
 Done with rirpa frequency point #                    32
 Done with rirpa frequency point #                    33
 Done with rirpa frequency point #                    34
 Done with rirpa frequency point #                    35
 Done with rirpa frequency point #                    36
 Done with rirpa frequency point #                    37
 Done with rirpa frequency point #                    38
 Done with rirpa frequency point #                    39
 Done with rirpa frequency point #                    40
 Done with rirpa frequency point #                    41
 Done with rirpa frequency point #                    42
 Done with rirpa frequency point #                    43
 Done with rirpa frequency point #                    44
 Done with rirpa frequency point #                    45
 Done with rirpa frequency point #                    46
 Done with rirpa frequency point #                    47
 Done with rirpa frequency point #                    48
 Done with rirpa frequency point #                    49
 Done with rirpa frequency point #                    50
 Done with rirpa frequency point #                    51
 Done with rirpa frequency point #                    52
 Done with rirpa frequency point #                    53
 Done with rirpa frequency point #                    54
 Done with rirpa frequency point #                    55
 Done with rirpa frequency point #                    56
 Done with rirpa frequency point #                    57
 Done with rirpa frequency point #                    58
 Done with rirpa frequency point #                    59
 Done with rirpa frequency point #                    60
 Done with rirpa frequency point #                    61
 Done with rirpa frequency point #                    62
 Done with rirpa frequency point #                    63
 Done with rirpa frequency point #                    64
 Done with rirpa frequency point #                    65
 Done with rirpa frequency point #                    66
 Done with rirpa frequency point #                    67
 Done with rirpa frequency point #                    68
 Done with rirpa frequency point #                    69
 Done with rirpa frequency point #                    70
 Done with rirpa frequency point #                    71
 Done with rirpa frequency point #                    72
 Done with rirpa frequency point #                    73
 Done with rirpa frequency point #                    74
 Done with rirpa frequency point #                    75
 Done with rirpa frequency point #                    76
 Done with rirpa frequency point #                    77
 Done with rirpa frequency point #                    78
 Done with rirpa frequency point #                    79
 Done with rirpa frequency point #                    80
 Done with rirpa frequency point #                    81
 Done with rirpa frequency point #                    82
 Done with rirpa frequency point #                    83
 Done with rirpa frequency point #                    84
 Done with rirpa frequency point #                    85
 Done with rirpa frequency point #                    86
 Done with rirpa frequency point #                    87
 Done with rirpa frequency point #                    88
 Done with rirpa frequency point #                    89
 Done with rirpa frequency point #                    90
 Done with rirpa frequency point #                    91
 Done with rirpa frequency point #                    92
 Done with rirpa frequency point #                    93
 Done with rirpa frequency point #                    94
 Done with rirpa frequency point #                    95
 Done with rirpa frequency point #                    96
 Done with rirpa frequency point #                    97
 Done with rirpa frequency point #                    98
 Done with rirpa frequency point #                    99
 Done with rirpa frequency point #                   100
 


 RI-RPA correlation energy: -0.1826539145758147E+01
 
 
 HXX Energy calculation skipped due to nohxx option
 

                  --------------------------------------------------- 
                 |  HXX+RIRPA total energy     =     -1.82653914576  |
                  ---------------------------------------------------- 
                 :  RIRPA correlation energy   =     -1.82653914576  :
                 :  HXX total energy           =      0.00000000000  :
                 :  Hartree energy             =      0.00000000000  :
                 :  Exact Exchange energy      =      0.00000000000  :
                  .................................................... 


    ------------------------------------------------------------------------
    Rirpa profiling                cpu                    wall         ratio
    ------------------------------------------------------------------------
    module                         sec     %               sec     %
    ------------------------------------------------------------------------
    RIRPA                     10718.6  100.00          448.9  100.00  23.9
    STARTUP                       6.9    0.06            2.1    0.47   3.2
    riccmos                      15.8    0.15            2.2    0.48   7.3
    riccaux                      50.9    0.47            2.2    0.48  23.5
    riccbound                    21.4    0.20           16.5    3.68   1.3
    ccmkbaoi                    236.5    2.21            9.1    2.03  26.0
    cc3idxnrm                    21.6    0.20            0.8    0.18  27.1
    ecrpa                     10362.3   96.68          416.0   92.65  24.9
    tread                       481.6    4.49           55.2   12.30   8.7
    tqbuild                    8633.9   80.55          315.0   70.16  27.4
    trpaln                      569.8    5.32           20.4    4.54  28.0
    ------------------------------------------------------------------------
    sum                       31119.6  290.33         1288.4  286.97  24.2
    ------------------------------------------------------------------------


    ------------------------------------------------------------------------
         total  cpu-time :  2 hours 58 minutes and 39 seconds
         total wall-time :  7 minutes and 29 seconds
    ------------------------------------------------------------------------

   ****  rirpa : all done  ****


    2019-11-27 01:59:19.103 

