           Doing BLAS/Lapack in the master proc. with  8 CPUs.
           SMPCPUS    set: Shared-memory Parallelization with   8 CPUs.

           SMP Parallelization Reference:
           C. van Wullen, J. Comput. Chem. 32 (2011) 1195--1201
 operating system is UNIX !

 ridft (c-18-264.gp.local) : TURBOMOLE V7.2 ( 21454 ) 4 Oct 2017 at 12:48:15
 Copyright (C) 2017 TURBOMOLE GmbH, Karlsruhe


    2018-04-28 21:00:07.540 



                                  r i d f t

                        DFT program with RI approximation 
                                for coulomb part 




                                                 
                                 References:     
                                                 
          TURBOMOLE:                             
              R. Ahlrichs, M. Baer, M. Haeser, H. Horn, and
              C. Koelmel
              Electronic structure calculations on workstation
              computers: the program system TURBOMOLE
              Chem. Phys. Lett. 162: 165 (1989)
          Density Functional:                              
              O. Treutler and R. Ahlrichs                      
              Efficient Molecular Numerical Integration Schemes
              J. Chem. Phys. 102: 346 (1995)                   
          Parallel Version:                                
              Performance of parallel TURBOMOLE for Density    
              Functional Calculations                          
              M. v. Arnim and R. Ahlrichs                      
              J. Comp. Chem. 19: 1746 (1998)                   
          RI-J Method:                                     
              Auxiliary Basis Sets to approximate Coulomb      
              Potentials                                       
              Chem. Phys. Lett. 240: 283 (1995)                
              K. Eichkorn, O. Treutler, H. Oehm, M. Haeser     
              and R. Ahlrichs                                  
              Chem. Phys. Lett. 242: 652 (1995)                
                                                           
              Auxiliary Basis Sets for Main Row Atoms and their
              Use to approximate Coulomb Potentials            
              K. Eichkorn, F. Weigend, O. Treutler and         
              R. Ahlrichs                                      
              Theo. Chem. Acc. 97: 119 (1997)                   
                                                           
              Accurate Coulomb-fitting basis sets for H to Rn 
              F. Weigend                                        
              Phys. Chem. Chem. Phys. 8: 1057 (2006)            
                                                           
          Multipole accelerated RI-J (MARI-J):             
              Fast evaluation of the Coulomb potential for     
              electron densities using multipole accelerated   
              resolution of identity approximation             
              M. Sierka, A. Hogekamp and R. Ahlrichs           
              J. Chem. Phys. 118: 9136 (2003)                  
          RI-JK Method:                                     
              A fully direct RI-HF algorithm: Implementation,
              optimised auxiliary basis sets, demonstration of
              accuracy and efficiency                         
              F. Weigend                                      
              Phys. Chem. Chem. Phys. 4: 4285 (2002)           
          Two-component HF and DFT with spin-orbit coupling:  
              Self-consistent treatment of spin-orbit         
              interactions with efficient Hartree-Fock and    
              density functional methods                      
              M. K. Armbruster, F. Weigend, C. van Wüllen and 
              W. Klopper                                      
              Phys. Chem. Chem. Phys. 10: 1748 (2008)         
          Relativistic all-electron 2c calculations           
              An efficient implementation of two-component    
              relativistic exact-decoupling methods for large 
              molecules                                       
              D. Peng, N. Middendorf, F. Weigend, M. Reiher   
              J. Chem. Phys. 138, 184105 (2013)               
                                         




              +--------------------------------------------------+
              |      general information about current run       |
              +--------------------------------------------------+

 

 DENSITY CONVERGENCE CHECK SWITCHED ON !
 SCF CONVERGENCE IF RMS(delta[D]) <     0.1000000000E-06

 TPSS meta-GGA functional
 exchange:    LDA + TPSS
 correlation: LDA (PW) + TPSS
 A DFT calculation using the RI-J approximation will be carried out.
 Allocatable memory for RI due to $ricore (MB):                  5000


              +--------------------------------------------------+
              | Atomic coordinate, charge and isotop information |
              +--------------------------------------------------+

                    atomic coordinates            atom    charge  isotop
         -1.07659254    1.53894091    0.19104705    n      7.000     0
          0.24732308    1.06091238   -1.11043058    h      1.000     0
         -2.76136637    0.99572467   -0.52993583    h      1.000     0
         -0.57733848    0.12417447    2.51105246    c      6.000     0
         -1.99772300    0.59388455    3.92299473    h      1.000     0
         -0.54428559   -1.93185282    2.29572672    h      1.000     0
          1.24808422    0.69638133    3.26968398    h      1.000     0
 
       center of nuclear mass  :   -0.83239664    0.78799428    1.31198236
       center of nuclear charge:   -0.82267480    0.71848241    1.34731573

              +--------------------------------------------------+
              |               basis set information              |
              +--------------------------------------------------+

              we will work with the 1s 3p 5d 7f 9g ... basis set
              ...i.e. with spherical basis functions...

   type   atoms  prim   cont   basis
   ---------------------------------------------------------------------------
    n        1     50     30   cc-pVTZ   [4s3p2d1f|18s5p2d1f]
    h        5     16     14   cc-pVTZ   [3s2p1d|5s2p1d]
    c        1     50     30   cc-pVTZ   [4s3p2d1f|18s5p2d1f]
   ---------------------------------------------------------------------------
   total:    7    180    130
   ---------------------------------------------------------------------------

   total number of primitive shells          :   60
   total number of contracted shells         :   50
   total number of cartesian basis functions :  145
   total number of SCF-basis functions       :  130


 integral neglect threshold       :  0.23E-12
 integral storage threshold THIZE :  0.10E-04
 integral storage threshold THIME :         5

 RI-J AUXILIARY BASIS SET information:

              we will work with the 1s 3p 5d 7f 9g ... basis set
              ...i.e. with spherical basis functions...

   type   atoms  prim   cont   basis
   ---------------------------------------------------------------------------
    n        1     70     49   cc-pVTZ   [6s4p3d1f1g|12s5p4d2f1g]
    h        5     16     11   cc-pVTZ   [3s1p1d|5s2p1d]
    c        1     70     49   cc-pVTZ   [6s4p3d1f1g|12s5p4d2f1g]
   ---------------------------------------------------------------------------
   total:    7    220    153
   ---------------------------------------------------------------------------

   total number of primitive shells          :   56
   total number of contracted shells         :   55
   total number of cartesian basis functions :  182
   total number of SCF-basis functions       :  153


 symmetry group of the molecule :   c1 

 the group has the following generators :
   c1(z)

    1 symmetry operations found

 there are 1 real representations :   a   

 maximum number of shells which are related by symmetry :  1


    mo occupation :
   irrep   mo's   occupied
    a      130        9
 
 number of basis functions   :                    130
 number of occupied orbitals :                      9
 
  
           ------------------
           density functional
           ------------------
 TPSS meta-GGA functional
 exchange:    LDA + TPSS
 correlation: LDA (PW) + TPSS

 iterations will be done with small grid
  
 spherical integration : Lebedev's spherical grid
 spherical gridsize    :                     5
    i.e. gridpoints    :                   590
 value for diffuse not defined
 radial integration    : Chebyshev 2nd kind (scaling 3)
 radial gridsize       :                     8
 integration cells     :                     7
 partition function    : becke
 partition sharpness   :                     3
  

 biggest AO integral is expected to be     4.229423036
  
           ------------------------
               RI-J - INFORMATION
           ------------------------
 Contributions to RI integral batches: 
  neglected integral batches:                     0
  direct contribution:                            0
  memory contribution:                  1275
 Memory core needed for (P|Q) and Cholesky      1 MByte
 Memory core minimum needed except of (P|Q)     1 MByte
 Total minimum memory core needed (sum)         1 MByte
  
 ****************************************
 Memory allocated for RI-J    15 MByte
 ****************************************
                                            

          ------------------------
          nuclear repulsion energy  :   42.0932860640    
          ------------------------


         -----------------
         -S,T+V- integrals
         -----------------

 1e-integrals will be neglected if expon. factor < 0.230480E-13
 Difference densities >>NOT<< switched on in parallel ridft!

 DIIS switched on: error vector is FDS-SDF
 Max. Iterations for DIIS is     :   4
 DIIS matrix (see manual) 
    Scaling factor of diagonals  :  1.200
    threshold for scaling factor :  0.000

 scf convergence criterion : increment of total energy < .1000000D-08
                  and increment of one-electron energy < .1000000D-05

  MOs are in ASCII format !


 automatic virtual orbital shift switched on 
      shift if e(lumo)-e(homo) < 0.10000000    


 reading orbital data $scfmo  from file mos
 orbital characterization : expanded
 mo provided and orthogonalized by Cholesky decomposition

 DSCF restart information will be dumped onto file mos


 Starting SCF iterations

          Overall gridpoints after grid construction =         30693

 ITERATION  ENERGY          1e-ENERGY        2e-ENERGY     RMS[dD(SAO)]   TOL
   1  -95.526320602238    -210.16396135     72.544354681    0.000D+00 0.230D-12
                            Exc = -13.9664016273     Coul =  86.5107563085    
                              N = 18.000031812    
                            current damping = 0.700
 
          max. resid. norm for Fia-block=  2.544D-01 for orbital      1a         
          max. resid. fock norm         =  4.370D+00 for orbital    126a         

 ITERATION  ENERGY          1e-ENERGY        2e-ENERGY     RMS[dD(SAO)]   TOL
   2  -95.821297620283    -211.10297971     73.188396023    0.352D-02 0.230D-12
                            Exc = -14.0848734779     Coul =  87.2732695011    
                              N = 18.000026798    
                            current damping = 0.650
 
          Norm of current diis error:  1.2246    
          max. resid. norm for Fia-block=  1.216D-01 for orbital      1a         
          max. resid. fock norm         =  1.540D-01 for orbital    130a         

 ITERATION  ENERGY          1e-ENERGY        2e-ENERGY     RMS[dD(SAO)]   TOL
   3  -95.884696705359    -211.53737645     73.559393683    0.228D-02 0.230D-12
                            Exc = -14.1779090589     Coul =  87.7373027419    
                              N = 18.000022991    
                            current damping = 0.500
 
          Norm of current diis error: 0.57908    
          max. resid. norm for Fia-block=  4.942D-02 for orbital      1a         
          max. resid. fock norm         =  5.164D-02 for orbital      1a         

 ITERATION  ENERGY          1e-ENERGY        2e-ENERGY     RMS[dD(SAO)]   TOL
   4  -95.904244786263    -211.63443499     73.636904141    0.168D-02 0.230D-12
                            Exc = -14.2141705064     Coul =  87.8510746470    
                              N = 18.000020775    
                            current damping = 0.350
 
          Norm of current diis error: 0.20651    
          max. resid. norm for Fia-block=  1.907D-02 for orbital      4a         
          max. resid. fock norm         =  2.280D-02 for orbital      4a         

 ITERATION  ENERGY          1e-ENERGY        2e-ENERGY     RMS[dD(SAO)]   TOL
   5  -95.907186710519    -211.83396971     73.833496934    0.825D-03 0.230D-12
                            Exc = -14.2495260549     Coul =  88.0830229891    
                              N = 18.000019619    
                            current damping = 0.200
 
          Norm of current diis error: 0.75194E-01
          max. resid. norm for Fia-block=  8.668D-03 for orbital      9a         
          max. resid. fock norm         =  8.749D-03 for orbital      9a         
          mo-orthogonalization: Cholesky decomposition

 ITERATION  ENERGY          1e-ENERGY        2e-ENERGY     RMS[dD(SAO)]   TOL
   6  -95.907515525954    -211.72255400     73.721752407    0.448D-03 0.230D-12
                            Exc = -14.2408769313     Coul =  87.9626293383    
                              N = 18.000019409    
                            current damping = 0.250
 
          Norm of current diis error: 0.46660E-01
          max. resid. norm for Fia-block=  2.146D-03 for orbital      5a         
          max. resid. fock norm         =  2.986D-03 for orbital     71a         

 ITERATION  ENERGY          1e-ENERGY        2e-ENERGY     RMS[dD(SAO)]   TOL
   7  -95.907593727766    -211.78587186     73.784992070    0.731D-04 0.230D-12
                            Exc = -14.2483575825     Coul =  88.0333496528    
                              N = 18.000019298    
                            current damping = 0.300
 
          Norm of current diis error: 0.41777E-02
          max. resid. norm for Fia-block=  2.846D-04 for orbital      6a         
          max. resid. fock norm         =  4.481D-04 for orbital     62a         

 ITERATION  ENERGY          1e-ENERGY        2e-ENERGY     RMS[dD(SAO)]   TOL
   8  -95.907594351429    -211.78468524     73.783804826    0.142D-04 0.230D-12
                            Exc = -14.2484427580     Coul =  88.0322475842    
                              N = 18.000019287    
                            current damping = 0.350
 
          Norm of current diis error: 0.20294E-02
          max. resid. norm for Fia-block=  1.111D-04 for orbital      6a         
          max. resid. fock norm         =  1.326D-04 for orbital     57a         

 ITERATION  ENERGY          1e-ENERGY        2e-ENERGY     RMS[dD(SAO)]   TOL
   9  -95.907594517525    -211.78768365     73.786803068    0.426D-05 0.230D-12
                            Exc = -14.2487487604     Coul =  88.0355518282    
                              N = 18.000019282    
                            current damping = 0.400
 
          Norm of current diis error: 0.26061E-03
          max. resid. norm for Fia-block=  2.613D-05 for orbital      9a         
          max. resid. fock norm         =  3.042D-05 for orbital      9a         

 ITERATION  ENERGY          1e-ENERGY        2e-ENERGY     RMS[dD(SAO)]   TOL
  10  -95.907594521187    -211.78741311     73.786532525    0.107D-05 0.230D-12
                            Exc = -14.2487275421     Coul =  88.0352600669    
                              N = 18.000019282    
                            current damping = 0.450
 
          Norm of current diis error: 0.86019E-04
          max. resid. norm for Fia-block=  6.906D-06 for orbital      5a         
          max. resid. fock norm         =  9.881D-06 for orbital    122a         
          mo-orthogonalization: Cholesky decomposition

 ITERATION  ENERGY          1e-ENERGY        2e-ENERGY     RMS[dD(SAO)]   TOL
  11  -95.907594521552    -211.78745984     73.786579251    0.292D-06 0.230D-12
                            Exc = -14.2487342137     Coul =  88.0353134646    
                              N = 18.000019281    
                            current damping = 0.500
 
          Norm of current diis error: 0.25004E-04
          max. resid. norm for Fia-block=  2.580D-06 for orbital      5a         
          max. resid. fock norm         =  3.214D-06 for orbital    124a         

 DENSITY CONVERGED !


 ITERATION  ENERGY          1e-ENERGY        2e-ENERGY     RMS[dD(SAO)]   TOL
  12  -95.907594521588    -211.78747890     73.786598313    0.940D-07 0.230D-12
                            Exc = -14.2487370133     Coul =  88.0353353259    
                              N = 18.000019281    
                            current damping = 0.350
 
          Norm of current diis error: 0.57513E-05
          max. resid. norm for Fia-block=  8.913D-07 for orbital      9a         
          max. resid. fock norm         =  9.131D-07 for orbital     86a         

 ENERGY & DENSITY CONVERGED !

          Overall gridpoints after grid construction =        103891

 ITERATION  ENERGY          1e-ENERGY        2e-ENERGY     RMS[dD(SAO)]   TOL
  13  -95.907556436858    -211.78747409     73.786631590    0.429D-07 0.230D-12
                            Exc = -14.2486985209     Coul =  88.0353301109    
                              N = 17.999999648    
                            current damping = 0.400
 
          Norm of current diis error: 0.44399E-05
          max. resid. norm for Fia-block=  2.650D-07 for orbital      5a         
          max. resid. fock norm         =  3.685D-07 for orbital    124a         

 End of SCF iterations

   convergence criteria satisfied after    13 iterations


                  ------------------------------------------ 
                 |  total energy      =    -95.90755643686  |
                  ------------------------------------------ 
                 :  kinetic energy    =     95.39460171200  :
                 :  potential energy  =   -191.30215814886  :
                 :  virial theorem    =      1.99465157133  :
                 :  wavefunction norm =      1.00000000000  :
                  .......................................... 


 <geterg> : there is no data group $energy 


 <skperg> : $end is missing 


 orbitals $scfmo  will be written to file mos

    irrep                  5a          6a          7a          8a          9a   
 eigenvalues H         -0.44416    -0.39530    -0.35881    -0.32840    -0.19820
            eV         -12.0863    -10.7567     -9.7639     -8.9364     -5.3932
 occupation              2.0000      2.0000      2.0000      2.0000      2.0000 

    irrep                 10a         11a         12a         13a         14a   
 eigenvalues H          0.02605     0.06523     0.08466     0.10643     0.12133
            eV           0.7090      1.7749      2.3038      2.8961      3.3017
 
 
 
 
 ==============================================================================
                           electrostatic moments
 ==============================================================================

 reference point for electrostatic moments:    0.00000   0.00000   0.00000

 
              nuc           elec       ->  total
 ------------------------------------------------------------------------------
                          charge      
 ------------------------------------------------------------------------------
          18.000000     -18.000000      -0.000000
 
 ------------------------------------------------------------------------------
                       dipole moment  
 ------------------------------------------------------------------------------
   x     -14.808146      14.793971      -0.014176
   y      12.932683     -13.420470      -0.487787
   z      24.251683     -24.392594      -0.140911
 
   | dipole moment | =     0.5079 a.u. =     1.2910 debye 
 
 ------------------------------------------------------------------------------
                     quadrupole moment
 ------------------------------------------------------------------------------
  xx      23.644450     -33.015477      -9.371027
  yy      23.357594     -36.329005     -12.971411
  zz      70.952770     -80.756862      -9.804092
  xy     -13.780797      14.344270       0.563473
  xz     -13.955157      14.031642       0.076485
  yz       2.394930      -2.601577      -0.206647
 
     1/3  trace=     -10.715510
     anisotropy=       3.562201
 
 ==============================================================================
 


    ------------------------------------------------------------------------
         total  cpu-time :  41.26 seconds
         total wall-time :   3.38 seconds
    ------------------------------------------------------------------------

   ****  ridft : all done  ****


    2018-04-28 21:00:10.907 

