           Doing BLAS/Lapack in the master proc. with  8 CPUs.
           SMPCPUS    set: Shared-memory Parallelization with   8 CPUs.

           SMP Parallelization Reference:
           C. van Wullen, J. Comput. Chem. 32 (2011) 1195--1201
 operating system is UNIX !

 ridft (c-18-261.gp.local) : TURBOMOLE V7.2 ( 21454 ) 4 Oct 2017 at 12:48:15
 Copyright (C) 2017 TURBOMOLE GmbH, Karlsruhe


    2018-04-28 20:55:46.276 



                                  r i d f t

                        DFT program with RI approximation 
                                for coulomb part 




                                                 
                                 References:     
                                                 
          TURBOMOLE:                             
              R. Ahlrichs, M. Baer, M. Haeser, H. Horn, and
              C. Koelmel
              Electronic structure calculations on workstation
              computers: the program system TURBOMOLE
              Chem. Phys. Lett. 162: 165 (1989)
          Density Functional:                              
              O. Treutler and R. Ahlrichs                      
              Efficient Molecular Numerical Integration Schemes
              J. Chem. Phys. 102: 346 (1995)                   
          Parallel Version:                                
              Performance of parallel TURBOMOLE for Density    
              Functional Calculations                          
              M. v. Arnim and R. Ahlrichs                      
              J. Comp. Chem. 19: 1746 (1998)                   
          RI-J Method:                                     
              Auxiliary Basis Sets to approximate Coulomb      
              Potentials                                       
              Chem. Phys. Lett. 240: 283 (1995)                
              K. Eichkorn, O. Treutler, H. Oehm, M. Haeser     
              and R. Ahlrichs                                  
              Chem. Phys. Lett. 242: 652 (1995)                
                                                           
              Auxiliary Basis Sets for Main Row Atoms and their
              Use to approximate Coulomb Potentials            
              K. Eichkorn, F. Weigend, O. Treutler and         
              R. Ahlrichs                                      
              Theo. Chem. Acc. 97: 119 (1997)                   
                                                           
              Accurate Coulomb-fitting basis sets for H to Rn 
              F. Weigend                                        
              Phys. Chem. Chem. Phys. 8: 1057 (2006)            
                                                           
          Multipole accelerated RI-J (MARI-J):             
              Fast evaluation of the Coulomb potential for     
              electron densities using multipole accelerated   
              resolution of identity approximation             
              M. Sierka, A. Hogekamp and R. Ahlrichs           
              J. Chem. Phys. 118: 9136 (2003)                  
          RI-JK Method:                                     
              A fully direct RI-HF algorithm: Implementation,
              optimised auxiliary basis sets, demonstration of
              accuracy and efficiency                         
              F. Weigend                                      
              Phys. Chem. Chem. Phys. 4: 4285 (2002)           
          Two-component HF and DFT with spin-orbit coupling:  
              Self-consistent treatment of spin-orbit         
              interactions with efficient Hartree-Fock and    
              density functional methods                      
              M. K. Armbruster, F. Weigend, C. van Wüllen and 
              W. Klopper                                      
              Phys. Chem. Chem. Phys. 10: 1748 (2008)         
          Relativistic all-electron 2c calculations           
              An efficient implementation of two-component    
              relativistic exact-decoupling methods for large 
              molecules                                       
              D. Peng, N. Middendorf, F. Weigend, M. Reiher   
              J. Chem. Phys. 138, 184105 (2013)               
                                         




              +--------------------------------------------------+
              |      general information about current run       |
              +--------------------------------------------------+

 

 DENSITY CONVERGENCE CHECK SWITCHED ON !
 SCF CONVERGENCE IF RMS(delta[D]) <     0.1000000000E-06

 PBE functional
 exchange:    LDA + PBE
 correlation: LDA (PW) + PBE
 A DFT calculation using the RI-J approximation will be carried out.
 Allocatable memory for RI due to $ricore (MB):                  5000


              +--------------------------------------------------+
              | Atomic coordinate, charge and isotop information |
              +--------------------------------------------------+

                    atomic coordinates            atom    charge  isotop
          0.72286221   -0.13342784    1.44922307    c      6.000     0
         -1.96652361    0.74986460    2.00487836    c      6.000     0
         -3.34779081   -0.53195838    1.16847480    h      1.000     0
         -2.31438118    0.82341998    4.03554587    h      1.000     0
         -2.29425231    2.63375749    1.23416246    h      1.000     0
          1.11653991   -2.77188457    2.54730908    c      6.000     0
          3.02906809   -3.44487625    2.17337942    h      1.000     0
          0.82953040   -2.77174821    4.58879681    h      1.000     0
         -0.20771691   -4.11711656    1.71835424    h      1.000     0
          2.60455104    1.69779678    2.64400926    c      6.000     0
          4.54364612    1.10632267    2.26905776    h      1.000     0
          2.35040532    1.78763235    4.68786235    h      1.000     0
          2.35908342    3.59997103    1.88774326    h      1.000     0
          1.13754132   -0.20982422   -1.40424905    c      6.000     0
          0.86778458    1.65736370   -2.23535363    h      1.000     0
          3.04943970   -0.83801691   -1.85131197    h      1.000     0
         -0.18808592   -1.50715074   -2.30399320    h      1.000     0
 
       center of nuclear mass  :    0.72300536   -0.13350146    1.44814904
       center of nuclear charge:    0.72301323   -0.13350598    1.44808911

              +--------------------------------------------------+
              |               basis set information              |
              +--------------------------------------------------+

              we will work with the 1s 3p 5d 7f 9g ... basis set
              ...i.e. with spherical basis functions...

   type   atoms  prim   cont   basis
   ---------------------------------------------------------------------------
    c        5     77     55   cc-pVQZ   [5s4p3d2f1g|21s6p3d2f1g]
    h       12     32     30   cc-pVQZ   [4s3p2d1f|6s3p2d1f]
   ---------------------------------------------------------------------------
   total:   17    769    635
   ---------------------------------------------------------------------------

   total number of primitive shells          :   45
   total number of contracted shells         :  195
   total number of cartesian basis functions :  770
   total number of SCF-basis functions       :  635


 integral neglect threshold       :  0.43E-13
 integral storage threshold THIZE :  0.10E-04
 integral storage threshold THIME :         5

 RI-J AUXILIARY BASIS SET information:

              we will work with the 1s 3p 5d 7f 9g ... basis set
              ...i.e. with spherical basis functions...

   type   atoms  prim   cont   basis
   ---------------------------------------------------------------------------
    c        5     70     49   cc-pVQZ   [6s4p3d1f1g|12s5p4d2f1g]
    h       12     16     11   cc-pVQZ   [3s1p1d|5s2p1d]
   ---------------------------------------------------------------------------
   total:   17    542    377
   ---------------------------------------------------------------------------

   total number of primitive shells          :   32
   total number of contracted shells         :  135
   total number of cartesian basis functions :  449
   total number of SCF-basis functions       :  377


 symmetry group of the molecule :   c1 

 the group has the following generators :
   c1(z)

    1 symmetry operations found

 there are 1 real representations :   a   

 maximum number of shells which are related by symmetry :  1


    mo occupation :
   irrep   mo's   occupied
    a      635       21
 
 number of basis functions   :                    635
 number of occupied orbitals :                     21
 
  
           ------------------
           density functional
           ------------------
 PBE functional
 exchange:    LDA + PBE
 correlation: LDA (PW) + PBE

 iterations will be done with small grid
  
 spherical integration : Lebedev's spherical grid
 spherical gridsize    :                     5
    i.e. gridpoints    :                   590
 value for diffuse not defined
 radial integration    : Chebyshev 2nd kind (scaling 3)
 radial gridsize       :                     8
 integration cells     :                    17
 partition function    : becke
 partition sharpness   :                     3
  

 biggest AO integral is expected to be     3.537514283
  
           ------------------------
               RI-J - INFORMATION
           ------------------------
 Contributions to RI integral batches: 
  neglected integral batches:                  1831
  direct contribution:                            0
  memory contribution:                 17279
 Memory core needed for (P|Q) and Cholesky      2 MByte
 Memory core minimum needed except of (P|Q)     3 MByte
 Total minimum memory core needed (sum)         4 MByte
  
 ****************************************
 Memory allocated for RI-J   938 MByte
 ****************************************
                                            

          ------------------------
          nuclear repulsion energy  :   199.354937352    
          ------------------------


         -----------------
         -S,T+V- integrals
         -----------------

 1e-integrals will be neglected if expon. factor < 0.434021E-14
 Difference densities >>NOT<< switched on in parallel ridft!

 DIIS switched on: error vector is FDS-SDF
 Max. Iterations for DIIS is     :   4
 DIIS matrix (see manual) 
    Scaling factor of diagonals  :  1.200
    threshold for scaling factor :  0.000

 scf convergence criterion : increment of total energy < .1000000D-08
                  and increment of one-electron energy < .1000000D-05

  MOs are in ASCII format !


 automatic virtual orbital shift switched on 
      shift if e(lumo)-e(homo) < 0.10000000    


 reading orbital data $scfmo  from file mos
 orbital characterization : expanded
 mo provided and orthogonalized by Cholesky decomposition

 DSCF restart information will be dumped onto file mos


 Starting SCF iterations

          Overall gridpoints after grid construction =         72586

 ITERATION  ENERGY          1e-ENERGY        2e-ENERGY     RMS[dD(SAO)]   TOL
   1  -196.88519235357    -650.67694554     254.43681583    0.000D+00 0.433D-13
                            Exc = -30.3256136043     Coul =  284.762429436    
                              N = 41.999863488    
                            current damping = 0.700
 
          max. resid. norm for Fia-block=  2.484D-01 for orbital      8a         
          max. resid. fock norm         =  6.843D+00 for orbital    628a         

 ITERATION  ENERGY          1e-ENERGY        2e-ENERGY     RMS[dD(SAO)]   TOL
   2  -197.41651810780    -656.54129093     259.76983547    0.337D-02 0.433D-13
                            Exc = -30.9680885092     Coul =  290.737923976    
                              N = 41.999888772    
                            current damping = 0.650
 
          Norm of current diis error:  2.4730    
          max. resid. norm for Fia-block=  1.015D-01 for orbital      6a         
          max. resid. fock norm         =  1.232D-01 for orbital     46a         

 ITERATION  ENERGY          1e-ENERGY        2e-ENERGY     RMS[dD(SAO)]   TOL
   3  -197.52216355598    -657.50895726     260.63185635    0.145D-02 0.433D-13
                            Exc = -31.1581526905     Coul =  291.790009041    
                              N = 41.999903570    
                            current damping = 0.550
 
          Norm of current diis error:  1.1670    
          max. resid. norm for Fia-block=  4.571D-02 for orbital      6a         
          max. resid. fock norm         =  5.245D-02 for orbital      6a         

 ITERATION  ENERGY          1e-ENERGY        2e-ENERGY     RMS[dD(SAO)]   TOL
   4  -197.55229582765    -658.84234994     261.93511677    0.725D-03 0.433D-13
                            Exc = -31.3131422210     Coul =  293.248258987    
                              N = 41.999913546    
                            current damping = 0.450
 
          Norm of current diis error: 0.41580    
          max. resid. norm for Fia-block=  1.887D-02 for orbital      6a         
          max. resid. fock norm         =  2.209D-02 for orbital      6a         

 ITERATION  ENERGY          1e-ENERGY        2e-ENERGY     RMS[dD(SAO)]   TOL
   5  -197.55660339695    -658.81298471     261.90144396    0.392D-03 0.433D-13
                            Exc = -31.3466586652     Coul =  293.248102628    
                              N = 41.999917549    
                            current damping = 0.500
 
          Norm of current diis error: 0.18178    
          max. resid. norm for Fia-block=  6.965D-03 for orbital     10a         
          max. resid. fock norm         =  7.900D-03 for orbital     10a         
          mo-orthogonalization: Cholesky decomposition

 ITERATION  ENERGY          1e-ENERGY        2e-ENERGY     RMS[dD(SAO)]   TOL
   6  -197.55737273826    -659.14136306     262.22905297    0.116D-03 0.433D-13
                            Exc = -31.3739969146     Coul =  293.603049885    
                              N = 41.999918959    
                            current damping = 0.550
 
          Norm of current diis error: 0.57453E-01
          max. resid. norm for Fia-block=  2.385D-03 for orbital      6a         
          max. resid. fock norm         =  2.948D-03 for orbital      6a         

 ITERATION  ENERGY          1e-ENERGY        2e-ENERGY     RMS[dD(SAO)]   TOL
   7  -197.55745427691    -659.10548314     262.19309151    0.585D-04 0.433D-13
                            Exc = -31.3759228054     Coul =  293.569014317    
                              N = 41.999919391    
                            current damping = 0.600
 
          Norm of current diis error: 0.15894E-01
          max. resid. norm for Fia-block=  6.716D-04 for orbital      6a         
          max. resid. fock norm         =  7.563D-04 for orbital      6a         

 ITERATION  ENERGY          1e-ENERGY        2e-ENERGY     RMS[dD(SAO)]   TOL
   8  -197.55746140631    -659.10887853     262.19647977    0.180D-04 0.433D-13
                            Exc = -31.3769452770     Coul =  293.573425050    
                              N = 41.999919512    
                            current damping = 0.650
 
          Norm of current diis error: 0.64694E-02
          max. resid. norm for Fia-block=  2.772D-04 for orbital      6a         
          max. resid. fock norm         =  3.065D-04 for orbital      6a         

 ITERATION  ENERGY          1e-ENERGY        2e-ENERGY     RMS[dD(SAO)]   TOL
   9  -197.55746259952    -659.11694706     262.20454711    0.633D-05 0.433D-13
                            Exc = -31.3779423026     Coul =  293.582489411    
                              N = 41.999919587    
                            current damping = 0.500
 
          Norm of current diis error: 0.23480E-02
          max. resid. norm for Fia-block=  1.006D-04 for orbital      6a         
          max. resid. fock norm         =  1.133D-04 for orbital      6a         

 ITERATION  ENERGY          1e-ENERGY        2e-ENERGY     RMS[dD(SAO)]   TOL
  10  -197.55746276061    -659.11649684     262.20409673    0.305D-05 0.433D-13
                            Exc = -31.3780148580     Coul =  293.582111589    
                              N = 41.999919603    
                            current damping = 0.550
 
          Norm of current diis error: 0.82964E-03
          max. resid. norm for Fia-block=  3.981D-05 for orbital      6a         
          max. resid. fock norm         =  4.571D-05 for orbital      6a         
          mo-orthogonalization: Cholesky decomposition

 ITERATION  ENERGY          1e-ENERGY        2e-ENERGY     RMS[dD(SAO)]   TOL
  11  -197.55746278026    -659.11678105     262.20438092    0.102D-05 0.433D-13
                            Exc = -31.3781027114     Coul =  293.582483632    
                              N = 41.999919612    
                            current damping = 0.600
 
          Norm of current diis error: 0.35116E-03
          max. resid. norm for Fia-block=  1.430D-05 for orbital     10a         
          max. resid. fock norm         =  1.628D-05 for orbital     10a         

 ITERATION  ENERGY          1e-ENERGY        2e-ENERGY     RMS[dD(SAO)]   TOL
  12  -197.55746278325    -659.11732353     262.20492339    0.291D-06 0.433D-13
                            Exc = -31.3781461512     Coul =  293.583069542    
                              N = 41.999919615    
                            current damping = 0.450
 
          Norm of current diis error: 0.11997E-03
          max. resid. norm for Fia-block=  5.094D-06 for orbital      6a         
          max. resid. fock norm         =  6.727D-06 for orbital     55a         

 ITERATION  ENERGY          1e-ENERGY        2e-ENERGY     RMS[dD(SAO)]   TOL
  13  -197.55746278364    -659.11718443     262.20478429    0.167D-06 0.433D-13
                            Exc = -31.3781445003     Coul =  293.582928791    
                              N = 41.999919616    
                            current damping = 0.500
 
          Norm of current diis error: 0.32984E-04
          max. resid. norm for Fia-block=  1.410D-06 for orbital      6a         
          max. resid. fock norm         =  1.572D-06 for orbital      6a         

 DENSITY CONVERGED !


 ITERATION  ENERGY          1e-ENERGY        2e-ENERGY     RMS[dD(SAO)]   TOL
  14  -197.55746278368    -659.11721925     262.20481912    0.416D-07 0.433D-13
                            Exc = -31.3781486879     Coul =  293.582967808    
                              N = 41.999919616    
                            current damping = 0.550
 
          Norm of current diis error: 0.10028E-04
          max. resid. norm for Fia-block=  4.748D-07 for orbital      6a         
          max. resid. fock norm         =  5.295D-07 for orbital      6a         

 ENERGY & DENSITY CONVERGED !

          Overall gridpoints after grid construction =        244151

 ITERATION  ENERGY          1e-ENERGY        2e-ENERGY     RMS[dD(SAO)]   TOL
  15  -197.55747688474    -659.11722318     262.20480894    0.144D-07 0.433D-13
                            Exc = -31.3781636374     Coul =  293.582972582    
                              N = 42.000010612    
                            current damping = 0.600
 
          Norm of current diis error: 0.35527E-05
          max. resid. norm for Fia-block=  1.643D-07 for orbital      6a         
          max. resid. fock norm         =  1.843D-07 for orbital      6a         

 End of SCF iterations

   convergence criteria satisfied after    15 iterations


                  ------------------------------------------ 
                 |  total energy      =   -197.55747688474  |
                  ------------------------------------------ 
                 :  kinetic energy    =    196.63129159018  :
                 :  potential energy  =   -394.18876847493  :
                 :  virial theorem    =      1.99531181857  :
                 :  wavefunction norm =      1.00000000000  :
                  .......................................... 


 <geterg> : there is no data group $energy 


 <skperg> : $end is missing 


 orbitals $scfmo  will be written to file mos

    irrep                 17a         18a         19a         20a         21a   
 eigenvalues H         -0.31760    -0.31760    -0.28081    -0.28080    -0.28070
            eV          -8.6424     -8.6423     -7.6412     -7.6409     -7.6384
 occupation              2.0000      2.0000      2.0000      2.0000      2.0000 

    irrep                 22a         23a         24a         25a         26a   
 eigenvalues H         -0.00049     0.04796     0.04796     0.04801     0.05804
            eV          -0.0133      1.3050      1.3051      1.3066      1.5794
 
 
 
 
 ==============================================================================
                           electrostatic moments
 ==============================================================================

 reference point for electrostatic moments:    0.00000   0.00000   0.00000

 
              nuc           elec       ->  total
 ------------------------------------------------------------------------------
                          charge      
 ------------------------------------------------------------------------------
          42.000000     -42.000000       0.000000
 
 ------------------------------------------------------------------------------
                       dipole moment  
 ------------------------------------------------------------------------------
   x      30.366556     -30.366695      -0.000140
   y      -5.607251       5.607293       0.000042
   z      60.819743     -60.819068       0.000675
 
   | dipole moment | =     0.0007 a.u. =     0.0018 debye 
 
 ------------------------------------------------------------------------------
                     quadrupole moment
 ------------------------------------------------------------------------------
  xx     155.840642    -182.505135     -26.664493
  yy     134.637993    -161.302659     -26.664666
  zz     221.755906    -248.420957     -26.665051
  xy      -4.054977       4.054961      -0.000016
  xz      44.008560     -44.007753       0.000806
  yz      -8.126558       8.126395      -0.000162
 
     1/3  trace=     -26.664737
     anisotropy=       0.001508
 
 ==============================================================================
 


    ------------------------------------------------------------------------
         total  cpu-time :  5 minutes and 17 seconds
         total wall-time :  47.15 seconds
    ------------------------------------------------------------------------

   ****  ridft : all done  ****


    2018-04-28 20:56:33.413 

