           Doing BLAS/Lapack in the master proc. with  8 CPUs.
           SMPCPUS    set: Shared-memory Parallelization with   8 CPUs.

           SMP Parallelization Reference:
           C. van Wullen, J. Comput. Chem. 32 (2011) 1195--1201
 operating system is UNIX !

 ridft (c-12-22.gp.local) : TURBOMOLE V7.2 ( 21454 ) 4 Oct 2017 at 12:48:15
 Copyright (C) 2017 TURBOMOLE GmbH, Karlsruhe


    2018-04-28 20:58:07.601 



                                  r i d f t

                        DFT program with RI approximation 
                                for coulomb part 




                                                 
                                 References:     
                                                 
          TURBOMOLE:                             
              R. Ahlrichs, M. Baer, M. Haeser, H. Horn, and
              C. Koelmel
              Electronic structure calculations on workstation
              computers: the program system TURBOMOLE
              Chem. Phys. Lett. 162: 165 (1989)
          Density Functional:                              
              O. Treutler and R. Ahlrichs                      
              Efficient Molecular Numerical Integration Schemes
              J. Chem. Phys. 102: 346 (1995)                   
          Parallel Version:                                
              Performance of parallel TURBOMOLE for Density    
              Functional Calculations                          
              M. v. Arnim and R. Ahlrichs                      
              J. Comp. Chem. 19: 1746 (1998)                   
          RI-J Method:                                     
              Auxiliary Basis Sets to approximate Coulomb      
              Potentials                                       
              Chem. Phys. Lett. 240: 283 (1995)                
              K. Eichkorn, O. Treutler, H. Oehm, M. Haeser     
              and R. Ahlrichs                                  
              Chem. Phys. Lett. 242: 652 (1995)                
                                                           
              Auxiliary Basis Sets for Main Row Atoms and their
              Use to approximate Coulomb Potentials            
              K. Eichkorn, F. Weigend, O. Treutler and         
              R. Ahlrichs                                      
              Theo. Chem. Acc. 97: 119 (1997)                   
                                                           
              Accurate Coulomb-fitting basis sets for H to Rn 
              F. Weigend                                        
              Phys. Chem. Chem. Phys. 8: 1057 (2006)            
                                                           
          Multipole accelerated RI-J (MARI-J):             
              Fast evaluation of the Coulomb potential for     
              electron densities using multipole accelerated   
              resolution of identity approximation             
              M. Sierka, A. Hogekamp and R. Ahlrichs           
              J. Chem. Phys. 118: 9136 (2003)                  
          RI-JK Method:                                     
              A fully direct RI-HF algorithm: Implementation,
              optimised auxiliary basis sets, demonstration of
              accuracy and efficiency                         
              F. Weigend                                      
              Phys. Chem. Chem. Phys. 4: 4285 (2002)           
          Two-component HF and DFT with spin-orbit coupling:  
              Self-consistent treatment of spin-orbit         
              interactions with efficient Hartree-Fock and    
              density functional methods                      
              M. K. Armbruster, F. Weigend, C. van Wüllen and 
              W. Klopper                                      
              Phys. Chem. Chem. Phys. 10: 1748 (2008)         
          Relativistic all-electron 2c calculations           
              An efficient implementation of two-component    
              relativistic exact-decoupling methods for large 
              molecules                                       
              D. Peng, N. Middendorf, F. Weigend, M. Reiher   
              J. Chem. Phys. 138, 184105 (2013)               
                                         




              +--------------------------------------------------+
              |      general information about current run       |
              +--------------------------------------------------+

 

 DENSITY CONVERGENCE CHECK SWITCHED ON !
 SCF CONVERGENCE IF RMS(delta[D]) <     0.1000000000E-06

 PBE functional
 exchange:    LDA + PBE
 correlation: LDA (PW) + PBE
 A DFT calculation using the RI-J approximation will be carried out.
 Allocatable memory for RI due to $ricore (MB):                  5000


              +--------------------------------------------------+
              | Atomic coordinate, charge and isotop information |
              +--------------------------------------------------+

                    atomic coordinates            atom    charge  isotop
          1.43571787    1.94882743    0.70632746    c      6.000     0
          2.71178772    3.54449179    0.70808910    h      1.000     0
          2.39356073   -0.50524160    0.79609074    c      6.000     0
          4.41235172   -0.81103302    0.86820130    h      1.000     0
          0.74704756   -2.56245194    0.80295429    c      6.000     0
          1.49035507   -4.46446398    0.87501027    h      1.000     0
         -1.85609966   -2.16686280    0.72049633    c      6.000     0
         -3.13251646   -3.76270966    0.72777322    h      1.000     0
         -2.81445627    0.28563171    0.63791927    c      6.000     0
         -4.83381937    0.59290250    0.58150464    h      1.000     0
         -1.16931558    2.34388630    0.63094881    c      6.000     0
         -1.91195236    4.24641663    0.57517446    h      1.000     0
 
       center of nuclear mass  :   -0.21059410   -0.10934506    0.71631874
       center of nuclear charge:   -0.21059680   -0.10932527    0.71676606

              +--------------------------------------------------+
              |               basis set information              |
              +--------------------------------------------------+

              we will work with the 1s 3p 5d 7f 9g ... basis set
              ...i.e. with spherical basis functions...

   type   atoms  prim   cont   basis
   ---------------------------------------------------------------------------
    c        6     50     30   cc-pVTZ   [4s3p2d1f|18s5p2d1f]
    h        6     16     14   cc-pVTZ   [3s2p1d|5s2p1d]
   ---------------------------------------------------------------------------
   total:   12    396    264
   ---------------------------------------------------------------------------

   total number of primitive shells          :   34
   total number of contracted shells         :   96
   total number of cartesian basis functions :  300
   total number of SCF-basis functions       :  264


 integral neglect threshold       :  0.11E-12
 integral storage threshold THIZE :  0.10E-04
 integral storage threshold THIME :         5

 RI-J AUXILIARY BASIS SET information:

              we will work with the 1s 3p 5d 7f 9g ... basis set
              ...i.e. with spherical basis functions...

   type   atoms  prim   cont   basis
   ---------------------------------------------------------------------------
    c        6     70     49   cc-pVTZ   [6s4p3d1f1g|12s5p4d2f1g]
    h        6     16     11   cc-pVTZ   [3s1p1d|5s2p1d]
   ---------------------------------------------------------------------------
   total:   12    516    360
   ---------------------------------------------------------------------------

   total number of primitive shells          :   32
   total number of contracted shells         :  120
   total number of cartesian basis functions :  438
   total number of SCF-basis functions       :  360


 symmetry group of the molecule :   c1 

 the group has the following generators :
   c1(z)

    1 symmetry operations found

 there are 1 real representations :   a   

 maximum number of shells which are related by symmetry :  1


    mo occupation :
   irrep   mo's   occupied
    a      264       21
 
 number of basis functions   :                    264
 number of occupied orbitals :                     21
 
  
           ------------------
           density functional
           ------------------
 PBE functional
 exchange:    LDA + PBE
 correlation: LDA (PW) + PBE

 iterations will be done with small grid
  
 spherical integration : Lebedev's spherical grid
 spherical gridsize    :                     5
    i.e. gridpoints    :                   590
 value for diffuse not defined
 radial integration    : Chebyshev 2nd kind (scaling 3)
 radial gridsize       :                     8
 integration cells     :                    12
 partition function    : becke
 partition sharpness   :                     3
  

 biggest AO integral is expected to be     3.593180334
  
           ------------------------
               RI-J - INFORMATION
           ------------------------
 Contributions to RI integral batches: 
  neglected integral batches:                   143
  direct contribution:                            0
  memory contribution:                  4513
 Memory core needed for (P|Q) and Cholesky      1 MByte
 Memory core minimum needed except of (P|Q)     1 MByte
 Total minimum memory core needed (sum)         2 MByte
  
 ****************************************
 Memory allocated for RI-J   148 MByte
 ****************************************
                                            

          ------------------------
          nuclear repulsion energy  :   203.621439855    
          ------------------------


         -----------------
         -S,T+V- integrals
         -----------------

 1e-integrals will be neglected if expon. factor < 0.111399E-13
 Difference densities >>NOT<< switched on in parallel ridft!

 DIIS switched on: error vector is FDS-SDF
 Max. Iterations for DIIS is     :   4
 DIIS matrix (see manual) 
    Scaling factor of diagonals  :  1.200
    threshold for scaling factor :  0.000

 scf convergence criterion : increment of total energy < .1000000D-08
                  and increment of one-electron energy < .1000000D-05

  MOs are in ASCII format !


 automatic virtual orbital shift switched on 
      shift if e(lumo)-e(homo) < 0.10000000    


 reading orbital data $scfmo  from file mos
 orbital characterization : expanded
 mo provided and orthogonalized by Cholesky decomposition

 DSCF restart information will be dumped onto file mos


 Starting SCF iterations

          Overall gridpoints after grid construction =         58190

 ITERATION  ENERGY          1e-ENERGY        2e-ENERGY     RMS[dD(SAO)]   TOL
   1  -231.26799283412    -704.43049033     269.54105764    0.000D+00 0.111D-12
                            Exc = -33.4908140303     Coul =  303.031871673    
                              N = 41.999974406    
                            current damping = 0.700
 
          max. resid. norm for Fia-block=  2.638D-01 for orbital     12a         
          max. resid. fock norm         =  5.256D+00 for orbital    251a         

 ITERATION  ENERGY          1e-ENERGY        2e-ENERGY     RMS[dD(SAO)]   TOL
   2  -231.86120774112    -711.46113313     275.97848553    0.337D-02 0.111D-12
                            Exc = -34.1209621366     Coul =  310.099447666    
                              N = 41.999973822    
                            current damping = 0.650
 
          Norm of current diis error:  1.9639    
          max. resid. norm for Fia-block=  1.119D-01 for orbital      4a         
          max. resid. fock norm         =  1.403D-01 for orbital     45a         

 ITERATION  ENERGY          1e-ENERGY        2e-ENERGY     RMS[dD(SAO)]   TOL
   3  -231.97496519884    -712.77964704     277.18324199    0.188D-02 0.111D-12
                            Exc = -34.2904951013     Coul =  311.473737091    
                              N = 41.999975771    
                            current damping = 0.550
 
          Norm of current diis error: 0.97213    
          max. resid. norm for Fia-block=  5.329D-02 for orbital      7a         
          max. resid. fock norm         =  6.181D-02 for orbital      7a         

 ITERATION  ENERGY          1e-ENERGY        2e-ENERGY     RMS[dD(SAO)]   TOL
   4  -232.00855437636    -714.12670090     278.49670666    0.972D-03 0.111D-12
                            Exc = -34.4169100062     Coul =  312.913616670    
                              N = 41.999975284    
                            current damping = 0.450
 
          Norm of current diis error: 0.35587    
          max. resid. norm for Fia-block=  2.047D-02 for orbital      7a         
          max. resid. fock norm         =  2.301D-02 for orbital      7a         

 ITERATION  ENERGY          1e-ENERGY        2e-ENERGY     RMS[dD(SAO)]   TOL
   5  -232.01386227423    -714.39051369     278.75521156    0.432D-03 0.111D-12
                            Exc = -34.4559055919     Coul =  313.211117155    
                              N = 41.999975749    
                            current damping = 0.300
 
          Norm of current diis error: 0.13082    
          max. resid. norm for Fia-block=  7.249D-03 for orbital      7a         
          max. resid. fock norm         =  8.297D-03 for orbital      7a         
          mo-orthogonalization: Cholesky decomposition

 ITERATION  ENERGY          1e-ENERGY        2e-ENERGY     RMS[dD(SAO)]   TOL
   6  -232.01460116301    -714.69211201     279.05607099    0.188D-03 0.111D-12
                            Exc = -34.4814868833     Coul =  313.537557878    
                              N = 41.999975594    
                            current damping = 0.150
 
          Norm of current diis error: 0.32371E-01
          max. resid. norm for Fia-block=  1.534D-03 for orbital      7a         
          max. resid. fock norm         =  2.724D-03 for orbital     65a         

 ITERATION  ENERGY          1e-ENERGY        2e-ENERGY     RMS[dD(SAO)]   TOL
   7  -232.01463676812    -714.60851416     278.97243754    0.581D-04 0.111D-12
                            Exc = -34.4786177104     Coul =  313.451055249    
                              N = 41.999975788    
                            current damping = 0.200
 
          Norm of current diis error: 0.19396E-01
          max. resid. norm for Fia-block=  5.745D-04 for orbital     12a         
          max. resid. fock norm         =  7.505D-04 for orbital     12a         

 ITERATION  ENERGY          1e-ENERGY        2e-ENERGY     RMS[dD(SAO)]   TOL
   8  -232.01464912269    -714.65949781     279.02340883    0.189D-04 0.111D-12
                            Exc = -34.4818542937     Coul =  313.505263127    
                              N = 41.999975730    
                            current damping = 0.250
 
          Norm of current diis error: 0.28283E-02
          max. resid. norm for Fia-block=  1.980D-04 for orbital     21a         
          max. resid. fock norm         =  4.282D-04 for orbital      4a         

 ITERATION  ENERGY          1e-ENERGY        2e-ENERGY     RMS[dD(SAO)]   TOL
   9  -232.01464857501    -714.66192456     279.02583613    0.716D-05 0.111D-12
                            Exc = -34.4820135403     Coul =  313.507849669    
                              N = 41.999975728    
                            current damping = 0.300
 
          Norm of current diis error: 0.45934E-02
          max. resid. norm for Fia-block=  8.830D-05 for orbital     21a         
          max. resid. fock norm         =  1.872D-04 for orbital      4a         

 ITERATION  ENERGY          1e-ENERGY        2e-ENERGY     RMS[dD(SAO)]   TOL
  10  -232.01464936867    -714.66144105     279.02535183    0.302D-05 0.111D-12
                            Exc = -34.4819861972     Coul =  313.507338026    
                              N = 41.999975729    
                            current damping = 0.350
 
          Norm of current diis error: 0.14547E-02
          max. resid. norm for Fia-block=  3.800D-05 for orbital     21a         
          max. resid. fock norm         =  7.764D-05 for orbital      4a         
          mo-orthogonalization: Cholesky decomposition

 ITERATION  ENERGY          1e-ENERGY        2e-ENERGY     RMS[dD(SAO)]   TOL
  11  -232.01464945593    -714.66112437     279.02503506    0.125D-05 0.111D-12
                            Exc = -34.4819717621     Coul =  313.507006818    
                              N = 41.999975730    
                            current damping = 0.200
 
          Norm of current diis error: 0.15476E-03
          max. resid. norm for Fia-block=  3.968D-06 for orbital     21a         
          max. resid. fock norm         =  9.005D-06 for orbital      4a         

 ITERATION  ENERGY          1e-ENERGY        2e-ENERGY     RMS[dD(SAO)]   TOL
  12  -232.01464945692    -714.66106509     279.02497577    0.149D-06 0.111D-12
                            Exc = -34.4819670794     Coul =  313.506942853    
                              N = 41.999975730    
                            current damping = 0.050
 
          Norm of current diis error: 0.74309E-05
          max. resid. norm for Fia-block=  4.793D-07 for orbital     14a         
          max. resid. fock norm         =  1.206D-06 for orbital      1a         

 ENERGY & DENSITY CONVERGED !

          Overall gridpoints after grid construction =        188429

 ITERATION  ENERGY          1e-ENERGY        2e-ENERGY     RMS[dD(SAO)]   TOL
  13  -232.01463586233    -714.66106481     279.02498909    0.162D-07 0.111D-12
                            Exc = -34.4819537951     Coul =  313.506942889    
                              N = 41.999999651    
                            current damping = 0.100
 
          Norm of current diis error: 0.12498E-04
          max. resid. norm for Fia-block=  2.664D-07 for orbital     14a         
          max. resid. fock norm         =  6.897D-07 for orbital      1a         

 End of SCF iterations

   convergence criteria satisfied after    13 iterations


                  ------------------------------------------ 
                 |  total energy      =   -232.01463586233  |
                  ------------------------------------------ 
                 :  kinetic energy    =    230.53356741731  :
                 :  potential energy  =   -462.54820327963  :
                 :  virial theorem    =      1.99361648700  :
                 :  wavefunction norm =      1.00000000000  :
                  .......................................... 


 <geterg> : there is no data group $energy 


 <skperg> : $end is missing 


 orbitals $scfmo  will be written to file mos

    irrep                 17a         18a         19a         20a         21a   
 eigenvalues H         -0.33106    -0.30033    -0.30031    -0.23033    -0.23031
            eV          -9.0087     -8.1725     -8.1720     -6.2677     -6.2672
 occupation              2.0000      2.0000      2.0000      2.0000      2.0000 

    irrep                 22a         23a         24a         25a         26a   
 eigenvalues H         -0.04032    -0.04029     0.02242     0.05565     0.05565
            eV          -1.0971     -1.0964      0.6100      1.5143      1.5143
 
 
 
 
 ==============================================================================
                           electrostatic moments
 ==============================================================================

 reference point for electrostatic moments:    0.00000   0.00000   0.00000

 
              nuc           elec       ->  total
 ------------------------------------------------------------------------------
                          charge      
 ------------------------------------------------------------------------------
          42.000000     -42.000000      -0.000000
 
 ------------------------------------------------------------------------------
                       dipole moment  
 ------------------------------------------------------------------------------
   x      -8.845066       8.845042      -0.000024
   y      -4.591661       4.591908       0.000247
   z      30.104174     -30.099024       0.005150
 
   | dipole moment | =     0.0052 a.u. =     0.0131 debye 
 
 ------------------------------------------------------------------------------
                     quadrupole moment
 ------------------------------------------------------------------------------
  xx     192.370237    -216.165984     -23.795747
  yy     191.034448    -214.828982     -23.794534
  zz      21.828715     -51.081535     -29.252820
  xy       1.091364      -1.087837       0.003527
  xz      -1.241665       1.391578       0.149913
  yz      -7.952213       7.823247      -0.128967
 
     1/3  trace=     -25.614367
     anisotropy=       5.468420
 
 ==============================================================================
 


    ------------------------------------------------------------------------
         total  cpu-time :  1 minutes and 59 seconds
         total wall-time :  12.27 seconds
    ------------------------------------------------------------------------

   ****  ridft : all done  ****


    2018-04-28 20:58:19.860 

