
   OpenMP run-time library returned nthreads = 28
 operating system is UNIX !

 dscf (c-13-38) : TURBOMOLE V7.3 ( 22142 ) 4 Jul 2018 at 18:12:42
 Copyright (C) 2018 TURBOMOLE GmbH, Karlsruhe


    2019-04-01 21:56:46.827 



                             d s c f - program

                   idea & directorship : reinhart ahlrichs
                   program development : marco haeser
                                         michael baer
                           dft version : oliver treutler


                          quantum chemistry group
                          universitaet  karlsruhe
                                  germany




                          References             
                                                 
          TURBOMOLE:                             
              R. Ahlrichs, M. Baer, M. Haeser, H. Horn, and
              C. Koelmel
              Electronic structure calculations on workstation
              computers: the program system TURBOMOLE
              Chem. Phys. Lett. 162: 165 (1989)
          Density Functional:                              
              O. Treutler and R. Ahlrichs                      
              Efficient Molecular Numerical Integration Schemes
              J. Chem. Phys. 102: 346 (1995)                   
          Parallel Version:                                
              Performance of parallel TURBOMOLE for Density    
              Functional Calculations                          
              M. v. Arnim and R. Ahlrichs                      
              J. Comp. Chem. 19: 1746 (1998)                   
                                         




              +--------------------------------------------------+
              | Atomic coordinate, charge and isotop information |
              +--------------------------------------------------+

                    atomic coordinates            atom    charge  isotop
         -2.32951643    2.28966581   -0.26763069    c      6.000     0
         -1.07955646    4.23679572    0.04840871    o      8.000     0
         -1.26721351    0.00734873   -0.59390591    n      7.000     0
          0.64977656   -0.17113380   -0.58265296    h      1.000     0
         -2.35122321   -1.52373097   -0.84410799    h      1.000     0
         -5.17453305    2.39382506   -0.29458293    c      6.000     0
         -5.81653043    3.11163270    1.52028768    h      1.000     0
         -6.05112046    0.57233283   -0.65424419    h      1.000     0
         -5.76364103    3.73313601   -1.73589745    h      1.000     0
 
       center of nuclear mass  :   -2.44870670    2.19933848   -0.28123235
       center of nuclear charge:   -2.55824943    2.11778090   -0.29499901

              +--------------------------------------------------+
              |               basis set information              |
              +--------------------------------------------------+

              we will work with the 1s 3p 5d 7f 9g ... basis set
              ...i.e. with spherical basis functions...

   type   atoms  prim   cont   basis
   ---------------------------------------------------------------------------
    c        2     77     55   cc-pVQZ   [5s4p3d2f1g|21s6p3d2f1g]
    o        1     77     55   cc-pVQZ   [5s4p3d2f1g|21s6p3d2f1g]
    n        1     77     55   cc-pVQZ   [5s4p3d2f1g|21s6p3d2f1g]
    h        5     32     30   cc-pVQZ   [4s3p2d1f|6s3p2d1f]
   ---------------------------------------------------------------------------
   total:    9    468    370
   ---------------------------------------------------------------------------

   total number of primitive shells          :  111
   total number of contracted shells         :  110
   total number of cartesian basis functions :  455
   total number of SCF-basis functions       :  370


 integral neglect threshold       :  0.73E-13
 integral storage threshold THIZE :  0.10E-04
 integral storage threshold THIME :         5


 DENSITY CONVERGENCE CHECK SWITCHED ON !
 SCF CONVERGENCE IF RMS(delta[D]) <     0.1000000000E-06


 symmetry group of the molecule :   c1 

 the group has the following generators :
   c1(z)

    1 symmetry operations found

 there are 1 real representations :   a   

 maximum number of shells which are related by symmetry :  1


    mo occupation :
   irrep   mo's   occupied
    a      370       16
 
 number of basis functions   :                    370
 number of occupied orbitals :                     16
 

 automatic virtual orbital shift switched on 
      shift if e(lumo)-e(homo) < 0.10000000    


          ------------------------
          nuclear repulsion energy  :   121.912064313    
          ------------------------


         -----------------
         -S,T+V- integrals
         -----------------

 1e-integrals will be neglected if expon. factor < 0.734497E-14
 
   Difference densities algorithm switched on.
   The maximal number of linear combinations of
   difference densities is                    20 .

 DIIS switched on: error vector is FDS-SDF
 Max. Iterations for DIIS is     :   5
 DIIS matrix (see manual) 
    Scaling factor of diagonals  :  1.200
    threshold for scaling factor :  0.000

 scf convergence criterion : increment of total energy < .1000000D-08
                  and increment of one-electron energy < .1000000D-05

  MOs are in ASCII format !


 reading orbital data $scfmo  from file mos
 orbital characterization : scfconv=9

 DSCF restart information will be dumped onto file mos

 
                                              current damping :  0.700
 ITERATION  ENERGY          1e-ENERGY        2e-ENERGY     RMS[dD(SAO)]   TOL
   1  -208.02588979351    -525.23609273     195.29813862    0.000D+00 0.733D-13
          max. resid. norm for Fia-block=  1.155D-01 for orbital      1a         
          max. resid. fock norm         =  2.535D-01 for orbital    368a         
          Delta Eig. =    29.6899298839 eV 
 
                                              current damping :  0.650
 ITERATION  ENERGY          1e-ENERGY        2e-ENERGY     RMS[dD(SAO)]   TOL
   2  -208.06344946563    -524.76856910     194.79305532    0.143D-02 0.478D-13
          Norm of current diis error: 0.53865    
          max. resid. norm for Fia-block=  5.157D-02 for orbital      1a         
          max. resid. fock norm         =  9.675D-02 for orbital    370a         
          Delta Eig. =    12.9799193510 eV 
 
                                              current damping :  0.600
 ITERATION  ENERGY          1e-ENERGY        2e-ENERGY     RMS[dD(SAO)]   TOL
   3  -208.07101423723    -524.82695718     194.84387863    0.634D-03 0.361D-13
          Norm of current diis error: 0.24104    
          max. resid. norm for Fia-block=  2.408D-02 for orbital      1a         
          max. resid. fock norm         =  3.811D-02 for orbital    368a         
          Delta Eig. =     5.5716018694 eV 
 
                                              current damping :  0.450
 ITERATION  ENERGY          1e-ENERGY        2e-ENERGY     RMS[dD(SAO)]   TOL
   4  -208.07281173643    -524.82991817     194.84504212    0.339D-03 0.316D-13
          Norm of current diis error: 0.10180    
          max. resid. norm for Fia-block=  8.256D-03 for orbital     11a         
          max. resid. fock norm         =  1.553D-02 for orbital    333a         
          Delta Eig. =     2.2883427866 eV 
 
                                              current damping :  0.500
 ITERATION  ENERGY          1e-ENERGY        2e-ENERGY     RMS[dD(SAO)]   TOL
   5  -208.07316902703    -524.81016280     194.82492946    0.133D-03 0.291D-13
          Norm of current diis error: 0.37283E-01
          max. resid. norm for Fia-block=  3.478D-03 for orbital     11a         
          max. resid. fock norm         =  4.392D-03 for orbital    369a         
 mo-orthogonalization: Cholesky decomposition
          Delta Eig. =     0.6665663921 eV 
 
                                              current damping :  0.550
 ITERATION  ENERGY          1e-ENERGY        2e-ENERGY     RMS[dD(SAO)]   TOL
   6  -208.07322407404    -524.81163027     194.82634189    0.536D-04 0.276D-13
          Norm of current diis error: 0.15492E-01
          max. resid. norm for Fia-block=  1.549D-03 for orbital     11a         
          max. resid. fock norm         =  1.579D-03 for orbital     11a         
          Delta Eig. =     0.2164254803 eV 
 
                                              current damping :  0.600
 ITERATION  ENERGY          1e-ENERGY        2e-ENERGY     RMS[dD(SAO)]   TOL
   7  -208.07323468449    -524.81075365     194.82545465    0.193D-04 0.262D-13
          Norm of current diis error: 0.70265E-02
          max. resid. norm for Fia-block=  7.639D-04 for orbital     11a         
          max. resid. fock norm         =  7.759D-04 for orbital     11a         
          Delta Eig. =     0.0705794806 eV 
 
                                              current damping :  0.450
 ITERATION  ENERGY          1e-ENERGY        2e-ENERGY     RMS[dD(SAO)]   TOL
   8  -208.07323712394    -524.81067571     194.82537427    0.843D-05 0.248D-13
          Norm of current diis error: 0.33682E-02
          max. resid. norm for Fia-block=  3.837D-04 for orbital     11a         
          max. resid. fock norm         =  3.904D-04 for orbital     11a         
          Delta Eig. =     0.0308574028 eV 
 
                                              current damping :  0.300
 ITERATION  ENERGY          1e-ENERGY        2e-ENERGY     RMS[dD(SAO)]   TOL
   9  -208.07323778471    -524.81062016     194.82531806    0.417D-05 0.231D-13
          Norm of current diis error: 0.14271E-02
          max. resid. norm for Fia-block=  1.694D-04 for orbital     11a         
          max. resid. fock norm         =  1.718D-04 for orbital     11a         
          Delta Eig. =     0.0100751727 eV 
 
                                              current damping :  0.350
 ITERATION  ENERGY          1e-ENERGY        2e-ENERGY     RMS[dD(SAO)]   TOL
  10  -208.07323792228    -524.81065215     194.82534992    0.186D-05 0.215D-13
          Norm of current diis error: 0.50821E-03
          max. resid. norm for Fia-block=  5.821D-05 for orbital     14a         
          max. resid. fock norm         =  5.969D-05 for orbital     14a         
 mo-orthogonalization: Cholesky decomposition
          Delta Eig. =     0.0029376303 eV 
 
                                              current damping :  0.400
 ITERATION  ENERGY          1e-ENERGY        2e-ENERGY     RMS[dD(SAO)]   TOL
  11  -208.07323794025    -524.81063528     194.82533303    0.539D-06 0.204D-13
          Norm of current diis error: 0.19548E-03
          max. resid. norm for Fia-block=  2.517D-05 for orbital     14a         
          max. resid. fock norm         =  2.531D-05 for orbital     14a         
          Delta Eig. =     0.0008146995 eV 
 
                                              current damping :  0.450
 ITERATION  ENERGY          1e-ENERGY        2e-ENERGY     RMS[dD(SAO)]   TOL
  12  -208.07323794289    -524.81064944     194.82534719    0.191D-06 0.195D-13
          Norm of current diis error: 0.80870E-04
          max. resid. norm for Fia-block=  1.018D-05 for orbital     14a         
          max. resid. fock norm         =  1.042D-05 for orbital     14a         
          Delta Eig. =     0.0003405603 eV 

 DENSITY CONVERGED !

 
                                              current damping :  0.500
 ITERATION  ENERGY          1e-ENERGY        2e-ENERGY     RMS[dD(SAO)]   TOL
  13  -208.07323794334    -524.81064523     194.82534297    0.854D-07 0.209D-13
          Norm of current diis error: 0.34631E-04
          max. resid. norm for Fia-block=  4.915D-06 for orbital     14a         
          max. resid. fock norm         =  4.925D-06 for orbital     14a         
          Delta Eig. =     0.0000946684 eV 

 DENSITY CONVERGED !

 
                                              current damping :  0.550
 ITERATION  ENERGY          1e-ENERGY        2e-ENERGY     RMS[dD(SAO)]   TOL
  14  -208.07323794342    -524.81064772     194.82534547    0.388D-07 0.210D-13
          Norm of current diis error: 0.15501E-04
          max. resid. norm for Fia-block=  2.115D-06 for orbital     14a         
          max. resid. fock norm         =  2.128D-06 for orbital     14a         
          Delta Eig. =     0.0000386415 eV 

 ENERGY & DENSITY CONVERGED !

 
                                              current damping :  0.600
 ITERATION  ENERGY          1e-ENERGY        2e-ENERGY     RMS[dD(SAO)]   TOL
  15  -208.07323794344    -524.81064736     194.82534510    0.229D-07 0.209D-13
          max. resid. norm for Fia-block=  5.886D-07 for orbital     14a         
          max. resid. fock norm         =  5.926D-07 for orbital     14a         

 convergence criteria satisfied after    15 iterations


                  ------------------------------------------ 
                 |  total energy      =   -208.07323794344  |
                  ------------------------------------------ 
                 :  kinetic energy    =    207.80914014531  :
                 :  potential energy  =   -415.88237808874  :
                 :  virial theorem    =      1.99873074596  :
                 :  wavefunction norm =      1.00000000000  :
                  .......................................... 


 orbitals $scfmo  will be written to file mos

    irrep                 12a         13a         14a         15a         16a   
 eigenvalues H         -0.57699    -0.56444    -0.52359    -0.41991    -0.41267
            eV         -15.7008    -15.3593    -14.2477    -11.4265    -11.2295
 occupation              2.0000      2.0000      2.0000      2.0000      2.0000 

    irrep                 17a         18a         19a         20a         21a   
 eigenvalues H          0.09868     0.13795     0.15017     0.16921     0.19457
            eV           2.6852      3.7539      4.0864      4.6043      5.2947
 
 
 
 
 ==============================================================================
                           electrostatic moments
 ==============================================================================

 reference point for electrostatic moments:    0.00000   0.00000   0.00000

 
              nuc           elec       ->  total
 ------------------------------------------------------------------------------
                          charge      
 ------------------------------------------------------------------------------
          32.000000     -32.000000       0.000000
 
 ------------------------------------------------------------------------------
                       dipole moment  
 ------------------------------------------------------------------------------
   x     -81.863982      81.174278      -0.689703
   y      67.768989     -69.350631      -1.581642
   z      -9.439968       9.192989      -0.246980
 
   | dipole moment | =     1.7431 a.u. =     4.4304 debye 
 
 ------------------------------------------------------------------------------
                     quadrupole moment
 ------------------------------------------------------------------------------
  xx     323.397086    -336.551081     -13.153995
  yy     235.738860    -260.656777     -24.917918
  zz      10.242901     -28.714148     -18.471247
  xy    -182.587699     182.124696      -0.463003
  xz      24.464128     -24.053551       0.410576
  yz      -7.035862       6.984018      -0.051845
 
     1/3  trace=     -18.847720
     anisotropy=      10.260029
 
 ==============================================================================
 


    ------------------------------------------------------------------------
         total  cpu-time : 29 minutes and 48 seconds
         total wall-time :  3 minutes and  8 seconds
    ------------------------------------------------------------------------

   ****  dscf : all done  ****


    2019-04-01 21:59:54.602 

