           Doing BLAS/Lapack in the master proc. with  8 CPUs.
           SMPCPUS    set: Shared-memory Parallelization with   8 CPUs.

           SMP Parallelization Reference:
           C. van Wullen, J. Comput. Chem. 32 (2011) 1195--1201
 operating system is UNIX !

 ridft (c-12-251.gp.local) : TURBOMOLE V7.2 ( 21454 ) 4 Oct 2017 at 12:48:15
 Copyright (C) 2017 TURBOMOLE GmbH, Karlsruhe


    2018-04-28 21:02:36.802 



                                  r i d f t

                        DFT program with RI approximation 
                                for coulomb part 




                                                 
                                 References:     
                                                 
          TURBOMOLE:                             
              R. Ahlrichs, M. Baer, M. Haeser, H. Horn, and
              C. Koelmel
              Electronic structure calculations on workstation
              computers: the program system TURBOMOLE
              Chem. Phys. Lett. 162: 165 (1989)
          Density Functional:                              
              O. Treutler and R. Ahlrichs                      
              Efficient Molecular Numerical Integration Schemes
              J. Chem. Phys. 102: 346 (1995)                   
          Parallel Version:                                
              Performance of parallel TURBOMOLE for Density    
              Functional Calculations                          
              M. v. Arnim and R. Ahlrichs                      
              J. Comp. Chem. 19: 1746 (1998)                   
          RI-J Method:                                     
              Auxiliary Basis Sets to approximate Coulomb      
              Potentials                                       
              Chem. Phys. Lett. 240: 283 (1995)                
              K. Eichkorn, O. Treutler, H. Oehm, M. Haeser     
              and R. Ahlrichs                                  
              Chem. Phys. Lett. 242: 652 (1995)                
                                                           
              Auxiliary Basis Sets for Main Row Atoms and their
              Use to approximate Coulomb Potentials            
              K. Eichkorn, F. Weigend, O. Treutler and         
              R. Ahlrichs                                      
              Theo. Chem. Acc. 97: 119 (1997)                   
                                                           
              Accurate Coulomb-fitting basis sets for H to Rn 
              F. Weigend                                        
              Phys. Chem. Chem. Phys. 8: 1057 (2006)            
                                                           
          Multipole accelerated RI-J (MARI-J):             
              Fast evaluation of the Coulomb potential for     
              electron densities using multipole accelerated   
              resolution of identity approximation             
              M. Sierka, A. Hogekamp and R. Ahlrichs           
              J. Chem. Phys. 118: 9136 (2003)                  
          RI-JK Method:                                     
              A fully direct RI-HF algorithm: Implementation,
              optimised auxiliary basis sets, demonstration of
              accuracy and efficiency                         
              F. Weigend                                      
              Phys. Chem. Chem. Phys. 4: 4285 (2002)           
          Two-component HF and DFT with spin-orbit coupling:  
              Self-consistent treatment of spin-orbit         
              interactions with efficient Hartree-Fock and    
              density functional methods                      
              M. K. Armbruster, F. Weigend, C. van Wüllen and 
              W. Klopper                                      
              Phys. Chem. Chem. Phys. 10: 1748 (2008)         
          Relativistic all-electron 2c calculations           
              An efficient implementation of two-component    
              relativistic exact-decoupling methods for large 
              molecules                                       
              D. Peng, N. Middendorf, F. Weigend, M. Reiher   
              J. Chem. Phys. 138, 184105 (2013)               
                                         




              +--------------------------------------------------+
              |      general information about current run       |
              +--------------------------------------------------+

 

 DENSITY CONVERGENCE CHECK SWITCHED ON !
 SCF CONVERGENCE IF RMS(delta[D]) <     0.1000000000E-06

 TPSS meta-GGA functional
 exchange:    LDA + TPSS
 correlation: LDA (PW) + TPSS
 A DFT calculation using the RI-J approximation will be carried out.
 Allocatable memory for RI due to $ricore (MB):                  5000


              +--------------------------------------------------+
              | Atomic coordinate, charge and isotop information |
              +--------------------------------------------------+

                    atomic coordinates            atom    charge  isotop
         -0.10479206   -1.79144318    0.01891668    n      7.000     0
         -0.10831172   -3.69954198    0.10403484    h      1.000     0
         -2.48302399   -0.63333223   -0.12205027    c      6.000     0
         -4.40097685   -1.90465661   -0.23263045    o      8.000     0
         -2.35905620    2.10903246   -0.12568305    c      6.000     0
         -4.09002757    3.16592051   -0.27798333    h      1.000     0
         -0.10030686    3.27192377    0.06461996    c      6.000     0
          0.09091575    5.30338385    0.08205130    h      1.000     0
          2.10879506    1.94186570    0.25543226    n      7.000     0
          3.77313142    2.82944869    0.49439070    h      1.000     0
          2.22108394   -0.66859398    0.33290579    c      6.000     0
          4.18504694   -1.82635496    0.63338423    o      8.000     0
          1.33764612   -0.32560399    6.19140678    c      0.000     0
          3.21946993   -0.99454031    5.97556466    h      0.000     0
         -0.82534213    0.40469520    6.39208028    c      0.000     0
         -2.72429496    1.02584882    6.58174107    h      0.000     0
 
       center of nuclear mass  :   -0.01271103    0.00034844    1.27606525
       center of nuclear charge:   -0.07519878    0.05652166    0.11082278

              +--------------------------------------------------+
              |               basis set information              |
              +--------------------------------------------------+

              we will work with the 1s 3p 5d 7f 9g ... basis set
              ...i.e. with spherical basis functions...

   type   atoms  prim   cont   basis
   ---------------------------------------------------------------------------
    n        2     50     30   cc-pVTZ   [4s3p2d1f|18s5p2d1f]
    h        6     16     14   cc-pVTZ   [3s2p1d|5s2p1d]
    c        6     50     30   cc-pVTZ   [4s3p2d1f|18s5p2d1f]
    o        2     50     30   cc-pVTZ   [4s3p2d1f|18s5p2d1f]
   ---------------------------------------------------------------------------
   total:   16    596    384
   ---------------------------------------------------------------------------

   total number of primitive shells          :   86
   total number of contracted shells         :  136
   total number of cartesian basis functions :  440
   total number of SCF-basis functions       :  384


 integral neglect threshold       :  0.76E-13
 integral storage threshold THIZE :  0.10E-04
 integral storage threshold THIME :         5

 RI-J AUXILIARY BASIS SET information:

              we will work with the 1s 3p 5d 7f 9g ... basis set
              ...i.e. with spherical basis functions...

   type   atoms  prim   cont   basis
   ---------------------------------------------------------------------------
    n        2     70     49   cc-pVTZ   [6s4p3d1f1g|12s5p4d2f1g]
    h        6     16     11   cc-pVTZ   [3s1p1d|5s2p1d]
    c        6     70     49   cc-pVTZ   [6s4p3d1f1g|12s5p4d2f1g]
    o        2     70     49   cc-pVTZ   [6s4p3d1f1g|12s5p4d2f1g]
   ---------------------------------------------------------------------------
   total:   16    796    556
   ---------------------------------------------------------------------------

   total number of primitive shells          :   80
   total number of contracted shells         :  180
   total number of cartesian basis functions :  682
   total number of SCF-basis functions       :  556


 symmetry group of the molecule :   c1 

 the group has the following generators :
   c1(z)

    1 symmetry operations found

 there are 1 real representations :   a   

 maximum number of shells which are related by symmetry :  1


    mo occupation :
   irrep   mo's   occupied
    a      384       29
 
 number of basis functions   :                    384
 number of occupied orbitals :                     29
 
  
           ------------------
           density functional
           ------------------
 Dummy atoms with grid-point found.
 DFT quadrature threshold dgrenze tightened by factor 1/10.

 TPSS meta-GGA functional
 exchange:    LDA + TPSS
 correlation: LDA (PW) + TPSS
 Dummy atoms with grid-point found.
 DFT quadrature threshold dgrenze tightened by factor 1/10.

 Dummy atoms with grid-point found.
 DFT quadrature threshold dgrenze tightened by factor 1/10.


 iterations will be done with small grid
  
 spherical integration : Lebedev's spherical grid
 spherical gridsize    :                     5
    i.e. gridpoints    :                   590
 value for diffuse not defined
 radial integration    : Chebyshev 2nd kind (scaling 3)
 radial gridsize       :                     8
 integration cells     :                    16
 partition function    : becke
 partition sharpness   :                     3
  
 found dummy atom(s) with basis: included in dft

 biggest AO integral is expected to be     4.866064444
  
           ------------------------
               RI-J - INFORMATION
           ------------------------
 Contributions to RI integral batches: 
  neglected integral batches:                   883
  direct contribution:                            0
  memory contribution:                  8433
 Memory core needed for (P|Q) and Cholesky      3 MByte
 Memory core minimum needed except of (P|Q)     1 MByte
 Total minimum memory core needed (sum)         4 MByte
  
 ****************************************
 Memory allocated for RI-J   454 MByte
 ****************************************
                                            

          ------------------------
          nuclear repulsion energy  :   357.249950397    
          ------------------------


         -----------------
         -S,T+V- integrals
         -----------------

 1e-integrals will be neglected if expon. factor < 0.759537E-14
 Difference densities >>NOT<< switched on in parallel ridft!

 DIIS switched on: error vector is FDS-SDF
 Max. Iterations for DIIS is     :   4
 DIIS matrix (see manual) 
    Scaling factor of diagonals  :  1.200
    threshold for scaling factor :  0.000

 scf convergence criterion : increment of total energy < .1000000D-08
                  and increment of one-electron energy < .1000000D-05

  MOs are in ASCII format !


 automatic virtual orbital shift switched on 
      shift if e(lumo)-e(homo) < 0.10000000    


 reading orbital data $scfmo  from file mos
 orbital characterization : expanded
 mo provided and orthogonalized by Cholesky decomposition

 DSCF restart information will be dumped onto file mos


 Starting SCF iterations

          Overall gridpoints after grid construction =         91215

 ITERATION  ENERGY          1e-ENERGY        2e-ENERGY     RMS[dD(SAO)]   TOL
   1  -413.15801697971    -1261.9249101     491.51694270    0.000D+00 0.758D-13
                            Exc = -54.1514765140     Coul =  545.668419209    
                              N = 57.999999106    
                            current damping = 0.700
 
          max. resid. norm for Fia-block=  4.395D-01 for orbital     20a         
          max. resid. fock norm         =  1.204D+01 for orbital    365a         

 ITERATION  ENERGY          1e-ENERGY        2e-ENERGY     RMS[dD(SAO)]   TOL
   2  -414.75285116436    -1268.6237627     496.62096111    0.391D-02 0.758D-13
                            Exc = -54.0939532478     Coul =  550.714914356    
                              N = 57.999997699    
                            current damping = 0.650
 
          Norm of current diis error:  2.3331    
          max. resid. norm for Fia-block=  1.592D-01 for orbital      1a         
          max. resid. fock norm         =  3.710D-01 for orbital    381a         

 ITERATION  ENERGY          1e-ENERGY        2e-ENERGY     RMS[dD(SAO)]   TOL
   3  -414.96657332624    -1271.4104886     499.19396486    0.250D-02 0.758D-13
                            Exc = -54.3627324149     Coul =  553.556697271    
                              N = 57.999996997    
                            current damping = 0.550
 
          Norm of current diis error:  1.0865    
          max. resid. norm for Fia-block=  6.346D-02 for orbital      1a         
          max. resid. fock norm         =  7.915D-02 for orbital     65a         

 ITERATION  ENERGY          1e-ENERGY        2e-ENERGY     RMS[dD(SAO)]   TOL
   4  -415.02307926437    -1271.8118382     499.53880853    0.215D-02 0.758D-13
                            Exc = -54.3061109186     Coul =  553.844919447    
                              N = 57.999997739    
                            current damping = 0.400
 
          Norm of current diis error: 0.48529    
          max. resid. norm for Fia-block=  3.062D-02 for orbital     10a         
          max. resid. fock norm         =  6.284D-02 for orbital    355a         

 ITERATION  ENERGY          1e-ENERGY        2e-ENERGY     RMS[dD(SAO)]   TOL
   5  -415.03095673988    -1272.1112849     499.83037778    0.695D-03 0.758D-13
                            Exc = -54.3928000741     Coul =  554.223177853    
                              N = 57.999997570    
                            current damping = 0.250
 
          Norm of current diis error: 0.31478    
          max. resid. norm for Fia-block=  9.843D-03 for orbital     27a         
          max. resid. fock norm         =  1.266D-02 for orbital    378a         
          mo-orthogonalization: Cholesky decomposition

 ITERATION  ENERGY          1e-ENERGY        2e-ENERGY     RMS[dD(SAO)]   TOL
   6  -415.03567734744    -1272.4515793     500.16595160    0.592D-03 0.758D-13
                            Exc = -54.3859789699     Coul =  554.551930572    
                              N = 57.999998120    
                            current damping = 0.100
 
          Norm of current diis error: 0.82220E-01
          max. resid. norm for Fia-block=  3.335D-03 for orbital     26a         
          max. resid. fock norm         =  5.361D-03 for orbital    324a         

 ITERATION  ENERGY          1e-ENERGY        2e-ENERGY     RMS[dD(SAO)]   TOL
   7  -415.03579433105    -1272.2296105     499.94386582    0.150D-03 0.758D-13
                            Exc = -54.3717750623     Coul =  554.315640878    
                              N = 57.999998102    
                            current damping = 0.150
 
          Norm of current diis error: 0.62276E-01
          max. resid. norm for Fia-block=  2.166D-03 for orbital     28a         
          max. resid. fock norm         =  3.714D-03 for orbital     21a         

 ITERATION  ENERGY          1e-ENERGY        2e-ENERGY     RMS[dD(SAO)]   TOL
   8  -415.03594483952    -1272.3063458     500.02045058    0.792D-04 0.758D-13
                            Exc = -54.3809325828     Coul =  554.401383167    
                              N = 57.999998048    
                            current damping = 0.200
 
          Norm of current diis error: 0.24778E-01
          max. resid. norm for Fia-block=  9.531D-04 for orbital     28a         
          max. resid. fock norm         =  1.986D-03 for orbital    352a         

 ITERATION  ENERGY          1e-ENERGY        2e-ENERGY     RMS[dD(SAO)]   TOL
   9  -415.03596378371    -1272.3534231     500.06750887    0.470D-04 0.758D-13
                            Exc = -54.3840832747     Coul =  554.451592146    
                              N = 57.999998122    
                            current damping = 0.050
 
          Norm of current diis error: 0.14873E-01
          max. resid. norm for Fia-block=  6.694D-04 for orbital     29a         
          max. resid. fock norm         =  9.703D-04 for orbital    301a         

 ITERATION  ENERGY          1e-ENERGY        2e-ENERGY     RMS[dD(SAO)]   TOL
  10  -415.03597119675    -1272.3329441     500.04702253    0.344D-04 0.758D-13
                            Exc = -54.3806143001     Coul =  554.427636835    
                              N = 57.999998087    
                            current damping = 0.100
 
          Norm of current diis error: 0.96626E-02
          max. resid. norm for Fia-block=  2.783D-04 for orbital     29a         
          max. resid. fock norm         =  4.414D-04 for orbital    380a         
          mo-orthogonalization: Cholesky decomposition

 ITERATION  ENERGY          1e-ENERGY        2e-ENERGY     RMS[dD(SAO)]   TOL
  11  -415.03597556980    -1272.3289721     500.04304612    0.121D-04 0.758D-13
                            Exc = -54.3816411424     Coul =  554.424687260    
                              N = 57.999998096    
                            current damping = 0.050
 
          Norm of current diis error: 0.19828E-02
          max. resid. norm for Fia-block=  6.732D-05 for orbital     24a         
          max. resid. fock norm         =  8.682D-05 for orbital     23a         

 ITERATION  ENERGY          1e-ENERGY        2e-ENERGY     RMS[dD(SAO)]   TOL
  12  -415.03597567546    -1272.3330965     500.04717047    0.173D-05 0.758D-13
                            Exc = -54.3816468811     Coul =  554.428817356    
                              N = 57.999998094    
                            current damping = 0.100
 
          Norm of current diis error: 0.11238E-02
          max. resid. norm for Fia-block=  3.392D-05 for orbital     14a         
          max. resid. fock norm         =  5.019D-05 for orbital    382a         

 ITERATION  ENERGY          1e-ENERGY        2e-ENERGY     RMS[dD(SAO)]   TOL
  13  -415.03597571357    -1272.3324166     500.04649050    0.990D-06 0.758D-13
                            Exc = -54.3816422935     Coul =  554.428132790    
                              N = 57.999998096    
                            current damping = 0.150
 
          Norm of current diis error: 0.51349E-03
          max. resid. norm for Fia-block=  1.797D-05 for orbital     27a         
          max. resid. fock norm         =  3.114D-05 for orbital    378a         

 ITERATION  ENERGY          1e-ENERGY        2e-ENERGY     RMS[dD(SAO)]   TOL
  14  -415.03597572220    -1272.3317070     500.04578091    0.614D-06 0.758D-13
                            Exc = -54.3816299199     Coul =  554.427410827    
                              N = 57.999998094    
                            current damping = 0.050
 
          Norm of current diis error: 0.24268E-03
          max. resid. norm for Fia-block=  1.007D-05 for orbital     27a         
          max. resid. fock norm         =  2.245D-05 for orbital    352a         

 ITERATION  ENERGY          1e-ENERGY        2e-ENERGY     RMS[dD(SAO)]   TOL
  15  -415.03597572366    -1272.3318926     500.04596644    0.487D-06 0.758D-13
                            Exc = -54.3816313094     Coul =  554.427597751    
                              N = 57.999998095    
                            current damping = 0.100
 
          Norm of current diis error: 0.16839E-03
          max. resid. norm for Fia-block=  5.450D-06 for orbital     29a         
          max. resid. fock norm         =  1.193D-05 for orbital    352a         
          mo-orthogonalization: Cholesky decomposition

 ITERATION  ENERGY          1e-ENERGY        2e-ENERGY     RMS[dD(SAO)]   TOL
  16  -415.03597572504    -1272.3319646     500.04603850    0.257D-06 0.758D-13
                            Exc = -54.3816341133     Coul =  554.427672616    
                              N = 57.999998095    
                            current damping = 0.050
 
          Norm of current diis error: 0.44068E-04
          max. resid. norm for Fia-block=  1.769D-06 for orbital     29a         
          max. resid. fock norm         =  2.958D-06 for orbital    352a         

 DENSITY CONVERGED !


 ITERATION  ENERGY          1e-ENERGY        2e-ENERGY     RMS[dD(SAO)]   TOL
  17  -415.03597572505    -1272.3319039     500.04597779    0.858D-07 0.758D-13
                            Exc = -54.3816345455     Coul =  554.427612340    
                              N = 57.999998095    
                            current damping = 0.100
 
          Norm of current diis error: 0.42365E-04
          max. resid. norm for Fia-block=  1.102D-06 for orbital     28a         
          max. resid. fock norm         =  1.571D-06 for orbital    381a         

 DENSITY CONVERGED !


 ITERATION  ENERGY          1e-ENERGY        2e-ENERGY     RMS[dD(SAO)]   TOL
  18  -415.03597572514    -1272.3319138     500.04598768    0.448D-07 0.758D-13
                            Exc = -54.3816328012     Coul =  554.427620480    
                              N = 57.999998095    
                            current damping = 0.150
 
          Norm of current diis error: 0.88439E-05
          max. resid. norm for Fia-block=  3.542D-07 for orbital     25a         
          max. resid. fock norm         =  6.339D-07 for orbital    377a         

 ENERGY & DENSITY CONVERGED !

          Overall gridpoints after grid construction =        262762

 ITERATION  ENERGY          1e-ENERGY        2e-ENERGY     RMS[dD(SAO)]   TOL
  19  -415.03583386481    -1272.3319274     500.04614312    0.108D-07 0.758D-13
                            Exc = -54.3814918032     Coul =  554.427634927    
                              N = 58.000004133    
                            current damping = 0.050
 
          Norm of current diis error: 0.61950E-05
          max. resid. norm for Fia-block=  1.386D-07 for orbital     28a         
          max. resid. fock norm         =  2.545D-07 for orbital    382a         

 End of SCF iterations

   convergence criteria satisfied after    19 iterations


                  ------------------------------------------ 
                 |  total energy      =   -415.03583386481  |
                  ------------------------------------------ 
                 :  kinetic energy    =    412.97287299500  :
                 :  potential energy  =   -828.00870685981  :
                 :  virial theorem    =      1.99502943914  :
                 :  wavefunction norm =      1.00000000000  :
                  .......................................... 


 <geterg> : there is no data group $energy 


 <skperg> : $end is missing 


 orbitals $scfmo  will be written to file mos

    irrep                 25a         26a         27a         28a         29a   
 eigenvalues H         -0.33959    -0.25988    -0.25629    -0.23059    -0.22702
            eV          -9.2407     -7.0718     -6.9739     -6.2748     -6.1776
 occupation              2.0000      2.0000      2.0000      2.0000      2.0000 

    irrep                 30a         31a         32a         33a         34a   
 eigenvalues H         -0.07652    -0.02689    -0.00160     0.03734     0.04791
            eV          -2.0823     -0.7317     -0.0436      1.0161      1.3036
 
 
 
 
 ==============================================================================
                           electrostatic moments
 ==============================================================================

 reference point for electrostatic moments:    0.00000   0.00000   0.00000

 
              nuc           elec       ->  total
 ------------------------------------------------------------------------------
                          charge      
 ------------------------------------------------------------------------------
          58.000000     -58.000000      -0.000000
 
 ------------------------------------------------------------------------------
                       dipole moment  
 ------------------------------------------------------------------------------
   x      -4.361529       4.867758       0.506229
   y       3.278256      -1.675593       1.602663
   z       6.427721      -6.427490       0.000231
 
   | dipole moment | =     1.6807 a.u. =     4.2719 debye 
 
 ------------------------------------------------------------------------------
                     quadrupole moment
 ------------------------------------------------------------------------------
  xx     457.299528    -499.457233     -42.157705
  yy     260.418199    -288.492878     -28.074679
  zz       5.314984     -39.418763     -34.103779
  xy       3.205192      -1.729515       1.475677
  xz      44.146470     -44.932750      -0.786281
  yz      -3.099200       3.577454       0.478254
 
     1/3  trace=     -34.778721
     anisotropy=      12.603470
 
 ==============================================================================
 


    ------------------------------------------------------------------------
         total  cpu-time :  9 minutes and 25 seconds
         total wall-time :  1 minutes and 12 seconds
    ------------------------------------------------------------------------

   ****  ridft : all done  ****


    2018-04-28 21:03:48.864 

