
   OpenMP run-time library returned nthreads = 28

 ricc2 (c-15-24) : TURBOMOLE V7.3 ( 22142 ) 4 Jul 2018 at 18:12:42
 Copyright (C) 2018 TURBOMOLE GmbH, Karlsruhe


    2019-04-01 23:12:09.275 



                              R I C C 2 - PROGRAM

                          the quantum chemistry groups
                             at the universities in
                           Karlsruhe, Bochum & Mainz
                                   Germany



   *-----------------------------------------------------------------------*
   |                     program will use 28 thread(s)                     |
   *-----------------------------------------------------------------------*


              +--------------------------------------------------+
              | Atomic coordinate, charge and isotop information |
              +--------------------------------------------------+

                    atomic coordinates            atom    charge  isotop
          1.44667126    1.64074399    1.55144806    c      6.000     0
          2.71643684    3.17475244    2.01275262    h      1.000     0
          2.33882447   -0.83684268    1.50023081    c      6.000     0
          4.30056083   -1.22555935    1.92319585    h      1.000     0
          0.70342643   -2.81292664    0.90190698    c      6.000     0
          1.39497294   -4.73580510    0.86371084    h      1.000     0
         -1.82345945   -2.31108144    0.35314887    c      6.000     0
         -3.09246025   -3.84476268   -0.10917632    h      1.000     0
         -2.71565946    0.16706233    0.40303538    c      6.000     0
         -4.67647562    0.55615048   -0.02167036    h      1.000     0
         -1.08074664    2.14299509    1.00309083    c      6.000     0
         -1.77199497    4.06614372    1.04138583    h      1.000     0
         -1.44271742   -1.37340350    7.67196249    c      0.000     0
         -1.64350808   -1.04279750    5.64559619    h      0.000     0
         -2.67413397   -2.94048515    8.18814244    h      0.000     0
          1.33431296   -1.85918233    8.32227372    c      0.000     0
          2.27016351   -3.06404346    6.94166952    h      0.000     0
          1.45389328   -2.80444937   10.15052070    h      0.000     0
          2.54399667    0.79663249    8.49414971    c      0.000     0
          3.77282570    1.16072778    6.88438097    h      0.000     0
          3.70214780    0.96513828   10.18682533    h      0.000     0
          0.31592240    2.68480341    8.54493050    c      0.000     0
          0.09453817    3.55213176    6.68868022    h      0.000     0
          0.59105441    4.19942803    9.91006601    h      0.000     0
         -2.01556835    1.06512823    9.10362588    c      0.000     0
         -3.77488166    1.96414172    8.52553382    h      0.000     0
         -2.13920512    0.66956904   11.12664430    h      0.000     0
 
       center of nuclear mass  :   -0.02844017   -0.05197397    4.48840220
       center of nuclear charge:   -0.18844335   -0.33498516    0.95208010

              +--------------------------------------------------+
              |               basis set information              |
              +--------------------------------------------------+

              we will work with the 1s 3p 5d 7f 9g ... basis set
              ...i.e. with spherical basis functions...

   type   atoms  prim   cont   basis
   ---------------------------------------------------------------------------
    c       11     77     55   cc-pVQZ   [5s4p3d2f1g|21s6p3d2f1g]
    h       16     32     30   cc-pVQZ   [4s3p2d1f|6s3p2d1f]
   ---------------------------------------------------------------------------
   total:   27   1359   1085
   ---------------------------------------------------------------------------

   total number of primitive shells          :   45
   total number of contracted shells         :  325
   total number of cartesian basis functions : 1330
   total number of SCF-basis functions       : 1085


 symmetry group of the molecule :   c1 

 the group has the following generators :
   c1(z)

    1 symmetry operations found

 there are 1 real representations :   a   


   =========================================================================


     restricted closed shell calculation for the wavefunction models:
               MP2        - Second Order Moeller Plesset PT


     global parameters for ricc2 program:

        hard restart (reuse of interm.) :  disabled
        soft restart (reuse of vectors) :  disabled
        threshold for vector function   :    0.100000E-05
        convergence threshold energy    :    0.100000E-06
        linear dependence threshold     :    0.100000E-13
        global print level              :      1
        maximum number of iterations    :   300
        maximum number DIIS vectors     :    10
        max. dim. of reduced space      :   100
        core memory limit (MB)          : *****


     MP2 energy only: Energy will be calculated directly from T2 amplitudes!

     Scratch Directory : 


   =========================================================================

    der. integral neglect threshold  :  0.10E-07
    integral neglect threshold       :  0.25E-11
    integral storage threshold THIZE :  0.10E-04
    integral storage threshold THIME :         5


                  +------------------------------------------+
                  |     Auxiliary basis set information      |
                  +------------------------------------------+

              we will work with the 1s 3p 5d 7f 9g ... basis set
              ...i.e. with spherical basis functions...

   type   atoms  prim   cont   basis
   ---------------------------------------------------------------------------
    c       11    132    132   cc-pVQZ   [8s7p6d5f3g1h|8s7p6d5f3g1h]
    h       16     55     55   cc-pVQZ   [5s4p3d2f1g|5s4p3d2f1g]
   ---------------------------------------------------------------------------
   total:   27   2332   2332
   ---------------------------------------------------------------------------

   total number of primitive shells          :   45
   total number of contracted shells         :  570
   total number of cartesian basis functions : 3111
   total number of SCF-basis functions       : 2332


 maximum number of shells which are related by symmetry :  1


 The symmetry information takes   1 MB

*---------------------------------------------------------------------*
|               simplified C1 algorithm will be applied               |
*---------------------------------------------------------------------*
  MOs are in ASCII format !


 reading orbital data $scfmo  from file mos
 orbital characterization : scfconv=9



              +--------------------------------------------+
              | list of orbitals that will be kept frozen: |
              +--------------------------------------------+
              |   irrep   index      energy     occ/vir    |
              +--------------------------------------------+
              |   a         1      -11.2346     occupied   |
              |   a         2      -11.2340     occupied   |
              |   a         3      -11.2340     occupied   |
              |   a         4      -11.2328     occupied   |
              |   a         5      -11.2328     occupied   |
              |   a         6      -11.2322     occupied   |
              +--------------------------------------------+



   Molecular Orbital Statistic:
   ============================

   -----------------------------
   orbitals in total:
   -----------------------------
    frozen occupied :      6
    active occupied :     15
    active virtual  :   1064
    frozen virtual  :      0
    all together    :   1085
   -----------------------------


     time in riccmos       cpu: 13.35 sec    wall:  1.53 sec    ratio:  8.7

     total memory allocated for calculation of (Q|P)**(-1/2) : 63 MiB


     calculation of (P|Q) ...
     time in lp2sym        cpu:  5.72 sec    wall:  0.20 sec    ratio: 28.1


     calculation of the Cholesky decomposition of (P|Q)**(-1) ...
     time in invmetri      cpu: 39.80 sec    wall:  1.64 sec    ratio: 24.2

   threshold for RMS(d[D]) in SCF was     :  0.10E-06
   integral neglect threshold             :  0.25E-11
   derivative integral neglect threshold  :  0.10E-07


   =========================================================================

     Energy of reference wave function is  -230.7939242140000
     Maximum orbital residual is           0.8256523968909E-07


     Number of symmetry-nonredundant auxiliary basis functions:     2332

     Block lengths for integral files:
        frozen occupied (BOI):        1 MiB
        active occupied (BJI):        1 MiB
        active virtual  (BAI):       19 MiB
        frozen virtual  (BGI):        0 MiB
               general  (BTI):       20 MiB

   =========================================================================




   **************************************************************************
   *                                                                        *
   *          OPTIMIZATION OF THE GROUND STATE CLUSTER AMPLITUDES           *
   *                                                                        *
   **************************************************************************


   Iter.   MP2 energy       Norm(Omega)   Norm(t1)  Norm(t2)     cpu    wall
   ...........................................................................
    1   -231.8032532675     ------          0.00000   0.34491    6.38    0.23
   ...........................................................................


     time in total         cpu:  6 min 23 s  wall:  0 min 14 s  ratio: 27.5


     **********************************************************************
     *                                                                    *
     *   RHF  energy                             :   -230.7939242140      *
     *   MP2 correlation energy (doubles)        :     -1.0093290535      *
     *                                                                    *
     *   Final MP2 energy                        :   -231.8032532675      *
     *                                                                    *
     *    E(S)   =     -0.6413884105      E(T)   =     -0.3679406430      *
     *    E(OS)  =     -0.7640352915      E(SS)  =     -0.2452937620      *
     *                                                                    *
     *   SCS-MP2 energy                          :   -231.7925311511      *
     *   (computed with  C(OS) =   1.2000  and  C(SS) =   0.3333)         *
     *                                                                    *
     *   SOS-MP2 energy                          :   -231.7871700929      *
     *   (computed with  C(OS) =   1.3000)                                *
     *                                                                    *
     *   Norm of MP1 T2 amplitudes               :      0.3449116477      *
     *                                                                    *
     **********************************************************************



    ------------------------------------------------------------------------
         total  cpu-time : 10 minutes and 30 seconds
         total wall-time :  25.53 seconds
    ------------------------------------------------------------------------

   ****  ricc2 : all done  ****


    2019-04-01 23:12:34.752 

