 operating system is UNIX !
 hostname is         c-4-5.local

 ridft (c-4-5.local) : TURBOMOLE V7.0.2( ) 8 Jan 2016 at 10:54:38
 Copyright (C) 2016 TURBOMOLE GmbH, Karlsruhe


    2016-05-09 19:38:12.948 



                                  r i d f t

                        DFT program with RI approximation 
                                for coulomb part 




                                                 
                                 References:     
                                                 
          TURBOMOLE:                             
              R. Ahlrichs, M. Baer, M. Haeser, H. Horn, and
              C. Koelmel
              Electronic structure calculations on workstation
              computers: the program system TURBOMOLE
              Chem. Phys. Lett. 162: 165 (1989)
          Density Functional:                              
              O. Treutler and R. Ahlrichs                      
              Efficient Molecular Numerical Integration Schemes
              J. Chem. Phys. 102: 346 (1995)                   
          Parallel Version:                                
              Performance of parallel TURBOMOLE for Density    
              Functional Calculations                          
              M. v. Arnim and R. Ahlrichs                      
              J. Comp. Chem. 19: 1746 (1998)                   
          RI-J Method:                                     
              Auxiliary Basis Sets to approximate Coulomb      
              Potentials                                       
              Chem. Phys. Lett. 240: 283 (1995)                
              K. Eichkorn, O. Treutler, H. Oehm, M. Haeser     
              and R. Ahlrichs                                  
              Chem. Phys. Lett. 242: 652 (1995)                
                                                           
              Auxiliary Basis Sets for Main Row Atoms and their
              Use to approximate Coulomb Potentials            
              K. Eichkorn, F. Weigend, O. Treutler and         
              R. Ahlrichs                                      
              Theo. Chem. Acc. 97: 119 (1997)                   
                                                           
              Accurate Coulomb-fitting basis sets for H to Rn 
              F. Weigend                                        
              Phys. Chem. Chem. Phys. 8: 1057 (2006)            
                                                           
          Multipole accelerated RI-J (MARI-J):             
              Fast evaluation of the Coulomb potential for     
              electron densities using multipole accelerated   
              resolution of identity approximation             
              M. Sierka, A. Hogekamp and R. Ahlrichs           
              J. Chem. Phys. 118: 9136 (2003)                  
          RI-JK Method:                                     
              A fully direct RI-HF algorithm: Implementation,
              optimised auxiliary basis sets, demonstration of
              accuracy and efficiency                         
              F. Weigend                                      
              Phys. Chem. Chem. Phys. 4: 4285 (2002)           
          Two-component HF and DFT with spin-orbit coupling:  
              Self-consistent treatment of spin-orbit         
              interactions with efficient Hartree-Fock and    
              density functional methods                      
              M. K. Armbruster, F. Weigend, C. van Wüllen and 
              W. Klopper                                      
              Phys. Chem. Chem. Phys. 10: 1748 (2008)         
          Relativistic all-electron 2c calculations           
              An efficient implementation of two-component    
              relativistic exact-decoupling methods for large 
              molecules                                       
              D. Peng, N. Middendorf, F. Weigend, M. Reiher   
              J. Chem. Phys. 138, 184105 (2013)               
                                         


 


              +--------------------------------------------------+
              |      general information about current run       |
              +--------------------------------------------------+

 

 DENSITY CONVERGENCE CHECK SWITCHED ON !
 SCF CONVERGENCE IF RMS(delta[D]) <     0.1000000000E-06

 PBE functional
 exchange:    LDA + PBE
 correlation: LDA (PW) + PBE
 A DFT calculation using the RI-J approximation will be carried out.
 Allocatable memory for RI due to $ricore (MB):        3000


              +--------------------------------------------------+
              | Atomic coordinate, charge and isotop information |
              +--------------------------------------------------+

                    atomic coordinates            atom    charge  isotop
         -1.38965263    4.39032136    1.13156966    c      6.000     0
          1.38965263   -4.39032136    1.13156966    c      6.000     0
         -0.19405862   -1.46264217  -10.20895352    c      6.000     0
          0.19405862    1.46264217  -10.20895352    c      6.000     0
         -1.03142613    7.33857758    0.96781809    c      6.000     0
          1.03142613   -7.33857758    0.96781809    c      6.000     0
          0.99073919   -2.62284104  -12.58205912    c      6.000     0
         -0.99073919    2.62284104  -12.58205912    c      6.000     0
         -3.14236228   -3.15720287   -5.78872346    c      6.000     0
          3.14236228    3.15720287   -5.78872346    c      6.000     0
         -0.14546696   -1.44219703  -14.97393405    c      6.000     0
          0.14546696    1.44219703  -14.97393405    c      6.000     0
          3.57666405    3.31980492    9.49921386    c      6.000     0
         -3.57666405   -3.31980492    9.49921386    c      6.000     0
          8.34360821   -2.69027006    7.54322033    c      6.000     0
         -8.34360821    2.69027006    7.54322033    c      6.000     0
         -3.18026697    3.38605834    5.02071977    c      6.000     0
          3.18026697   -3.38605834    5.02071977    c      6.000     0
         -4.14514923    3.79878190    0.93358873    c      6.000     0
          4.14514923   -3.79878190    0.93358873    c      6.000     0
          0.87816726   -3.55509472    3.81634591    c      6.000     0
         -0.87816726    3.55509472    3.81634591    c      6.000     0
         -1.15708952    3.24937709    9.04412472    c      6.000     0
          1.15708952   -3.24937709    9.04412472    c      6.000     0
          1.12621517   -3.27175920   -3.48897382    c      6.000     0
         -1.12621517    3.27175920   -3.48897382    c      6.000     0
          1.36529992    3.47831231    5.24731967    c      6.000     0
         -1.36529992   -3.47831231    5.24731967    c      6.000     0
         -0.12937216   -3.34389023   -1.06556824    c      6.000     0
          0.12937216    3.34389023   -1.06556824    c      6.000     0
          3.49338307   -3.19533112    7.64504652    c      6.000     0
         -3.49338307    3.19533112    7.64504652    c      6.000     0
         -0.89241693    2.52009890   -7.91670079    n      7.000     0
          0.89241693   -2.52009890   -7.91670079    n      7.000     0
          1.23429125    3.34634556    7.89010885    c      6.000     0
         -1.23429125   -3.34634556    7.89010885    c      6.000     0
          0.31247926    2.92778388   -5.73403158    c      6.000     0
         -0.31247926   -2.92778388   -5.73403158    c      6.000     0
          3.91465839   -3.31188035   -3.58718761    c      6.000     0
         -3.91465839    3.31188035   -3.58718761    c      6.000     0
          5.37163573   -3.45380748   -1.25964027    c      6.000     0
         -5.37163573    3.45380748   -1.25964027    c      6.000     0
         -5.88633949    2.95520116    8.96937169    c      6.000     0
          5.88633949   -2.95520116    8.96937169    c      6.000     0
          5.19364639   -3.57691898    3.28595213    o      8.000     0
         -5.19364639    3.57691898    3.28595213    o      8.000     0
          1.21750349   -3.15220152   11.57112811    o      8.000     0
         -1.21750349    3.15220152   11.57112811    o      8.000     0
         -3.64352559   -3.55545244    4.10544245    o      8.000     0
          3.64352559    3.55545244    4.10544245    o      8.000     0
         -5.95191601    2.92370604   11.33732515    o      8.000     0
          5.95191601   -2.92370604   11.33732515    o      8.000     0
          5.10680119   -3.05154790   -5.63973406    o      8.000     0
         -5.10680119    3.05154790   -5.63973406    o      8.000     0
         -2.38509327   -2.75436220   -0.68348394    o      8.000     0
          2.38509327    2.75436220   -0.68348394    o      8.000     0
         -3.08311181    3.06893811   12.02861702    h      1.000     0
          3.08311181   -3.06893811   12.02861702    h      1.000     0
         -2.85736947    2.56305691   -7.68603571    h      1.000     0
          2.85736947   -2.56305691   -7.68603571    h      1.000     0
          3.36139458    3.28226267    2.24385604    h      1.000     0
         -3.36139458   -3.28226267    2.24385604    h      1.000     0
         -2.23085704   -1.81457985  -10.21860359    h      1.000     0
          2.23085704    1.81457985  -10.21860359    h      1.000     0
          7.38405460   -3.09609536   -1.38071144    h      1.000     0
         -7.38405460    3.09609536   -1.38071144    h      1.000     0
         -3.04187874    2.30423662  -12.53715696    h      1.000     0
          3.04187874   -2.30423662  -12.53715696    h      1.000     0
          0.69391008   -4.67078752  -12.55460820    h      1.000     0
         -0.69391008    4.67078752  -12.55460820    h      1.000     0
         -2.16110384   -1.92893115  -15.08206286    h      1.000     0
          2.16110384    1.92893115  -15.08206286    h      1.000     0
         -3.78639701   -4.39141022   -4.27657066    h      1.000     0
          3.78639701    4.39141022   -4.27657066    h      1.000     0
          0.75642921   -2.25465568  -16.65025115    h      1.000     0
         -0.75642921    2.25465568  -16.65025115    h      1.000     0
         -4.06632176   -1.33067428   -5.50483425    h      1.000     0
          4.06632176    1.33067428   -5.50483425    h      1.000     0
         -5.23509016   -2.90973416    8.34546293    h      1.000     0
          5.23509016    2.90973416    8.34546293    h      1.000     0
         -3.74644820   -3.91912363   -7.61169219    h      1.000     0
          3.74644820    3.91912363   -7.61169219    h      1.000     0
         -3.41246197   -1.91689718   11.00470859    h      1.000     0
          3.41246197    1.91689718   11.00470859    h      1.000     0
          9.85055122   -2.35009441    8.90789191    h      1.000     0
         -9.85055122    2.35009441    8.90789191    h      1.000     0
          2.19149914   -8.24252827    2.41705757    h      1.000     0
         -2.19149914    8.24252827    2.41705757    h      1.000     0
         -8.23891606    1.13557290    6.18386662    h      1.000     0
          8.23891606   -1.13557290    6.18386662    h      1.000     0
         -0.95462482   -7.78998062    1.31327174    h      1.000     0
          0.95462482    7.78998062    1.31327174    h      1.000     0
         -1.59173730    8.02525039   -0.89864627    h      1.000     0
          1.59173730   -8.02525039   -0.89864627    h      1.000     0
          8.74979426   -4.40783439    6.46344253    h      1.000     0
         -8.74979426    4.40783439    6.46344253    h      1.000     0
          3.86326181    5.15816225   10.41369316    h      1.000     0
         -3.86326181   -5.15816225   10.41369316    h      1.000     0
 
       center of nuclear mass  :    0.00000000    0.00000000    0.92794586
       center of nuclear charge:    0.00000000    0.00000000    0.81897567

              +--------------------------------------------------+
              |               basis set information              |
              +--------------------------------------------------+

              we will work with the 1s 3p 5d 7f 9g ... basis set
              ...i.e. with spherical basis functions...

   type   atoms  prim   cont   basis
   ---------------------------------------------------------------------------
    c       42     66     46   aug-cc-pVTZ   [5s4p3d2f|19s6p3d2f]
    n        2     66     46   aug-cc-pVTZ   [5s4p3d2f|19s6p3d2f]
    o       12     66     46   aug-cc-pVTZ   [5s4p3d2f|19s6p3d2f]
    h       42     25     23   aug-cc-pVTZ   [4s3p2d|6s3p2d]
   ---------------------------------------------------------------------------
   total:   98   4746   3542
   ---------------------------------------------------------------------------

   total number of primitive shells          :  101
   total number of contracted shells         : 1162
   total number of cartesian basis functions : 4130
   total number of SCF-basis functions       : 3542


 integral neglect threshold       :  0.81E-14
 integral storage threshold THIZE :  0.10E-04
 integral storage threshold THIME :         5

 RI-J AUXILIARY BASIS SET information:

              we will work with the 1s 3p 5d 7f 9g ... basis set
              ...i.e. with spherical basis functions...

   type   atoms  prim   cont   basis
   ---------------------------------------------------------------------------
    c       42     70     49   aug-cc-pVTZ   [6s4p3d1f1g|12s5p4d2f1g]
    n        2     70     49   aug-cc-pVTZ   [6s4p3d1f1g|12s5p4d2f1g]
    o       12     70     49   aug-cc-pVTZ   [6s4p3d1f1g|12s5p4d2f1g]
    h       42     16     11   aug-cc-pVTZ   [3s1p1d|5s2p1d]
   ---------------------------------------------------------------------------
   total:   98   4592   3206
   ---------------------------------------------------------------------------

   total number of primitive shells          :   80
   total number of contracted shells         : 1050
   total number of cartesian basis functions : 3920
   total number of SCF-basis functions       : 3206


 symmetry group of the molecule :   c1 

 the group has the following generators :
   c1(z)

    1 symmetry operations found

 there are 1 real representations :   a   

 maximum number of shells which are related by symmetry :  1


    mo occupation :
   irrep   mo's   occupied
    a     3542      202
 
 number of basis functions   :         3542
 number of occupied orbitals :          202
 
  
           ------------------
           density functional
           ------------------
 PBE functional
 exchange:    LDA + PBE
 correlation: LDA (PW) + PBE
 iterations will be done with small grid
  
 spherical integration : Lebedev's spherical grid
 spherical gridsize    :           5
    i.e. gridpoints    :         590
 value for diffuse not defined
 radial integration    : Chebyshev 2nd kind (scaling 3)
 radial gridsize       :           8
 integration cells     :          98
 partition function    : becke
 partition sharpness   :           3
  

 biggest AO integral is expected to be     4.866064444
  
           ------------------------
               RI-J - INFORMATION
           ------------------------
 Contributions to RI integral batches: 
  neglected integral batches:      236085
  direct contribution:             396217
  memory contribution:       43401
 Memory core needed for (P|Q) and Cholesky     79 MByte
 Memory core minimum needed except of (P|Q)     8 MByte
 Total minimum memory core needed (sum)        86 MByte
  
 ****************************************
 Memory allocated for RI-J  2973 MByte
 ****************************************
                                            

          ------------------------
          nuclear repulsion energy  :   8859.31557760    
          ------------------------

 
          -----------------
          -S,T+V- integrals
          -----------------

 1e-integrals will be neglected if expon. factor < 0.809192E-15
 
   Difference densities algorithm switched on.
   The maximal number of linear combinations of
   difference densities is          20 .

 automatic virtual orbital shift switched on 
      shift if e(lumo)-e(homo) < 0.10000000    


 DIIS switched on: error vector is FDS-SDF
 Max. Iterations for DIIS is     :   4
 DIIS matrix (see manual) 
    Scaling factor of diagonals  :  1.200
    threshold for scaling factor :  0.000

 scf convergence criterion : increment of total energy < .1000000D-08
                  and increment of one-electron energy < .1000000D-05


 <geterg> : there is no data group $energy 

  MOs are in ASCII format !


 reading orbital data $scfmo  from file mos . 

 orbital characterization : expanded
 
 mo provided and orthogonalized by Cholesky decomposition

 DSCF restart information will be dumped onto file mos


 Starting SCF iterations

          Overall gridpoints after grid construction =        465018

 ITERATION  ENERGY          1e-ENERGY        2e-ENERGY     RMS[dD(SAO)]   TOL
   1  -2626.0454815027    -21164.346709     9678.9856501    0.000D+00 0.807D-14
                            Exc = -354.338567146     Coul =  10033.3242172    
                              N = 403.99903062    
                            current damping = 0.700
 
          max. resid. norm for Fia-block=  3.644D-01 for orbital    126a         
          max. resid. fock norm         =  4.988D+00 for orbital   2712a         

 ITERATION  ENERGY          1e-ENERGY        2e-ENERGY     RMS[dD(SAO)]   TOL
   2  -2634.2126370226    -21224.909294     9731.3810798    0.115D+00 0.743D-14
                            Exc = -355.414914831     Coul =  10086.7959946    
                              N = 403.99933171    
                            current damping = 0.650
 
          Norm of current diis error:  8.8865    
          max. resid. norm for Fia-block=  1.498D-01 for orbital      7a         
          max. resid. fock norm         =  4.460D-01 for orbital   3491a         

 ITERATION  ENERGY          1e-ENERGY        2e-ENERGY     RMS[dD(SAO)]   TOL
   3  -2635.3668392314    -21240.358191     9745.6757740    0.394D-01 0.392D-14
                            Exc = -357.514885060     Coul =  10103.1906590    
                              N = 403.99941393    
                            current damping = 0.550
 
          Norm of current diis error:  4.7478    
          max. resid. norm for Fia-block=  6.106D-02 for orbital      5a         
          max. resid. fock norm         =  6.614D-02 for orbital    220a         

 ITERATION  ENERGY          1e-ENERGY        2e-ENERGY     RMS[dD(SAO)]   TOL
   4  -2635.7932486782    -21247.201466     9752.0926394    0.384D-01 0.314D-14
                            Exc = -356.933149989     Coul =  10109.0257894    
                              N = 403.99936218    
                            current damping = 0.450
 
          Norm of current diis error:  2.1189    
          max. resid. norm for Fia-block=  3.745D-02 for orbital     69a         
          max. resid. fock norm         =  8.464D-02 for orbital   3491a         

 ITERATION  ENERGY          1e-ENERGY        2e-ENERGY     RMS[dD(SAO)]   TOL
   5  -2635.8565514641    -21247.270496     9752.0983672    0.205D-01 0.288D-14
                            Exc = -357.809472160     Coul =  10109.9078394    
                              N = 403.99938625    
                            current damping = 0.300
 
          Norm of current diis error:  1.2945    
          max. resid. norm for Fia-block=  1.596D-02 for orbital    191a         
          max. resid. fock norm         =  2.403D-02 for orbital   3518a         
          mo-orthogonalization: Cholesky decomposition

 ITERATION  ENERGY          1e-ENERGY        2e-ENERGY     RMS[dD(SAO)]   TOL
   6  -2635.8809641787    -21253.338687     9758.1421456    0.734D-02 0.279D-14
                            Exc = -357.755114500     Coul =  10115.8972601    
                              N = 403.99933836    
                            current damping = 0.200
 
          Norm of current diis error: 0.80347    
          max. resid. norm for Fia-block=  9.997D-03 for orbital    193a         
          max. resid. fock norm         =  1.862D-02 for orbital   3398a         
          irrep a   : virtual orbitals shifted by    0.00523

 ITERATION  ENERGY          1e-ENERGY        2e-ENERGY     RMS[dD(SAO)]   TOL
   7  -2635.8873000609    -21249.512390     9754.3095122    0.371D-02 0.275D-14
                            Exc = -357.639207573     Coul =  10111.9487198    
                              N = 403.99935777    
                            current damping = 0.250
 
          Norm of current diis error: 0.58867    
          max. resid. norm for Fia-block=  5.796D-03 for orbital    195a         
          max. resid. fock norm         =  1.094D-02 for orbital   3455a         
          irrep a   : virtual orbitals shifted by    0.00048

 ITERATION  ENERGY          1e-ENERGY        2e-ENERGY     RMS[dD(SAO)]   TOL
   8  -2635.8938871561    -21250.396290     9755.1868248    0.965D-03 0.273D-14
                            Exc = -357.678632511     Coul =  10112.8654573    
                              N = 403.99934230    
                            current damping = 0.300
 
          Norm of current diis error: 0.20108    
          max. resid. norm for Fia-block=  2.423D-03 for orbital    200a         
          max. resid. fock norm         =  4.573D-03 for orbital   3498a         

 ITERATION  ENERGY          1e-ENERGY        2e-ENERGY     RMS[dD(SAO)]   TOL
   9  -2635.8943352937    -21250.523892     9755.3139789    0.723D-03 0.273D-14
                            Exc = -357.734687744     Coul =  10113.0486666    
                              N = 403.99934556    
                            current damping = 0.150
 
          Norm of current diis error: 0.13349    
          max. resid. norm for Fia-block=  1.424D-03 for orbital    199a         
          max. resid. fock norm         =  2.041D-03 for orbital   3489a         
          irrep a   : virtual orbitals shifted by    0.00891

 ITERATION  ENERGY          1e-ENERGY        2e-ENERGY     RMS[dD(SAO)]   TOL
  10  -2635.8946728363    -21250.818057     9755.6078067    0.317D-03 0.272D-14
                            Exc = -357.712249585     Coul =  10113.3200563    
                              N = 403.99934444    
                            current damping = 0.050
 
          Norm of current diis error: 0.43435E-01
          max. resid. norm for Fia-block=  4.786D-04 for orbital    199a         
          max. resid. fock norm         =  7.878D-04 for orbital   3490a         
          irrep a   : virtual orbitals shifted by    0.01737
          mo-orthogonalization: Cholesky decomposition

 ITERATION  ENERGY          1e-ENERGY        2e-ENERGY     RMS[dD(SAO)]   TOL
  11  -2635.8946976089    -21250.542072     9755.3317964    0.105D-03 0.271D-14
                            Exc = -357.709341727     Coul =  10113.0411381    
                              N = 403.99934439    
                            current damping = 0.100
 
          Norm of current diis error: 0.23946E-01
          max. resid. norm for Fia-block=  3.089D-04 for orbital    197a         
          max. resid. fock norm         =  6.026D-04 for orbital   3487a         
          irrep a   : virtual orbitals shifted by    0.01317

 ITERATION  ENERGY          1e-ENERGY        2e-ENERGY     RMS[dD(SAO)]   TOL
  12  -2635.8947042848    -21250.629004     9755.4187217    0.562D-04 0.271D-14
                            Exc = -357.711097495     Coul =  10113.1298192    
                              N = 403.99934405    
                            current damping = 0.150
 
          Norm of current diis error: 0.14516E-01
          max. resid. norm for Fia-block=  2.024D-04 for orbital    197a         
          max. resid. fock norm         =  3.568D-04 for orbital   3487a         
          irrep a   : virtual orbitals shifted by    0.00931

 ITERATION  ENERGY          1e-ENERGY        2e-ENERGY     RMS[dD(SAO)]   TOL
  13  -2635.8947085938    -21250.631243     9755.4209564    0.341D-04 0.270D-14
                            Exc = -357.710831093     Coul =  10113.1317875    
                              N = 403.99934410    
                            current damping = 0.050
 
          Norm of current diis error: 0.48972E-02
          max. resid. norm for Fia-block=  7.715D-05 for orbital    197a         
          max. resid. fock norm         =  1.298D-04 for orbital   3488a         
          irrep a   : virtual orbitals shifted by    0.01718

 ITERATION  ENERGY          1e-ENERGY        2e-ENERGY     RMS[dD(SAO)]   TOL
  14  -2635.8947088410    -21250.632339     9755.4220524    0.115D-04 0.270D-14
                            Exc = -357.710882437     Coul =  10113.1329348    
                              N = 403.99934429    
                            current damping = 0.050
 
          Norm of current diis error: 0.35615E-02
          max. resid. norm for Fia-block=  3.876D-05 for orbital    197a         
          max. resid. fock norm         =  6.577D-05 for orbital   3488a         
          irrep a   : virtual orbitals shifted by    0.01717

 ITERATION  ENERGY          1e-ENERGY        2e-ENERGY     RMS[dD(SAO)]   TOL
  15  -2635.8947090821    -21250.629347     9755.4190606    0.846D-05 0.269D-14
                            Exc = -357.711054307     Coul =  10113.1301149    
                              N = 403.99934417    
                            current damping = 0.100
 
          Norm of current diis error: 0.14256E-02
          max. resid. norm for Fia-block=  1.798D-05 for orbital    195a         
          max. resid. fock norm         =  3.594D-05 for orbital   3455a         
          irrep a   : virtual orbitals shifted by    0.01325
          mo-orthogonalization: Cholesky decomposition

 ITERATION  ENERGY          1e-ENERGY        2e-ENERGY     RMS[dD(SAO)]   TOL
  16  -2635.8947090963    -21250.628389     9755.4181026    0.742D-05 0.266D-14
                            Exc = -357.710808143     Coul =  10113.1289108    
                              N = 403.99934417    
                            current damping = 0.050
 
          Norm of current diis error: 0.10267E-02
          max. resid. norm for Fia-block=  1.047D-05 for orbital    195a         
          max. resid. fock norm         =  2.180D-05 for orbital   3455a         
          irrep a   : virtual orbitals shifted by    0.01718

 ITERATION  ENERGY          1e-ENERGY        2e-ENERGY     RMS[dD(SAO)]   TOL
  17  -2635.8947091146    -21250.630932     9755.4206455    0.918D-05 0.259D-14
                            Exc = -357.710854390     Coul =  10113.1314999    
                              N = 403.99934417    
                            current damping = 0.100
 
          Norm of current diis error: 0.53235E-03
          max. resid. norm for Fia-block=  5.138D-06 for orbital    191a         
          max. resid. fock norm         =  2.222D-05 for orbital    882a         
          irrep a   : virtual orbitals shifted by    0.01324

 ITERATION  ENERGY          1e-ENERGY        2e-ENERGY     RMS[dD(SAO)]   TOL
  18  -2635.8947091071    -21250.628881     9755.4185946    0.140D-04 0.241D-14
                            Exc = -357.710948857     Coul =  10113.1295435    
                              N = 403.99934419    
                            current damping = 0.150
 
          Norm of current diis error: 0.30202E-03
          max. resid. norm for Fia-block=  3.553D-06 for orbital    197a         
          max. resid. fock norm         =  2.351D-05 for orbital    754a         
          irrep a   : virtual orbitals shifted by    0.00929

 ITERATION  ENERGY          1e-ENERGY        2e-ENERGY     RMS[dD(SAO)]   TOL
  19  -2635.8947091084    -21250.629853     9755.4195662    0.157D-04 0.219D-14
                            Exc = -357.710912854     Coul =  10113.1304791    
                              N = 403.99934418    
                            current damping = 0.200
 
          Norm of current diis error: 0.14581E-03
          max. resid. norm for Fia-block=  1.800D-06 for orbital    197a         
          max. resid. fock norm         =  2.957D-05 for orbital    754a         
          irrep a   : virtual orbitals shifted by    0.00535

 ITERATION  ENERGY          1e-ENERGY        2e-ENERGY     RMS[dD(SAO)]   TOL
  20  -2635.8947090957    -21250.629609     9755.4193220    0.177D-04 0.197D-14
                            Exc = -357.710901010     Coul =  10113.1302230    
                              N = 403.99934418    
                            current damping = 0.250
 
          Norm of current diis error: 0.58893E-04
          max. resid. norm for Fia-block=  7.382D-07 for orbital    197a         
          max. resid. fock norm         =  4.116D-05 for orbital    754a         
          irrep a   : virtual orbitals shifted by    0.00141
          mo-orthogonalization: Cholesky decomposition

 ITERATION  ENERGY          1e-ENERGY        2e-ENERGY     RMS[dD(SAO)]   TOL
  21  -2635.8947090963    -21250.629623     9755.4193363    0.233D-04 0.176D-14
                            Exc = -357.710897942     Coul =  10113.1302342    
                              N = 403.99934418    
                            current damping = 0.300
 
          Norm of current diis error: 0.51202E-04
          max. resid. norm for Fia-block=  9.692D-07 for orbital    195a         
          max. resid. fock norm         =  6.121D-05 for orbital    754a         

 ITERATION  ENERGY          1e-ENERGY        2e-ENERGY     RMS[dD(SAO)]   TOL
  22  -2635.8947091055    -21250.629815     9755.4195282    0.347D-04 0.807D-14
                            Exc = -357.710904104     Coul =  10113.1304323    
                              N = 403.99934418    
                            current damping = 0.150
 
          Norm of current diis error: 0.65341E-04
          max. resid. norm for Fia-block=  4.315D-07 for orbital    195a         
          max. resid. fock norm         =  4.292D-05 for orbital    754a         
          irrep a   : virtual orbitals shifted by    0.00929

 ITERATION  ENERGY          1e-ENERGY        2e-ENERGY     RMS[dD(SAO)]   TOL
  23  -2635.8947090894    -21250.629754     9755.4194678    0.289D-04 0.512D-14
                            Exc = -357.710901399     Coul =  10113.1303692    
                              N = 403.99934418    
                            current damping = 0.200
 
          Norm of current diis error: 0.15337E-04
          max. resid. norm for Fia-block=  2.502D-07 for orbital    192a         
          max. resid. fock norm         =  4.857D-05 for orbital    754a         
          irrep a   : virtual orbitals shifted by    0.00535

 ITERATION  ENERGY          1e-ENERGY        2e-ENERGY     RMS[dD(SAO)]   TOL
  24  -2635.8947090766    -21250.629701     9755.4194146    0.343D-04 0.328D-14
                            Exc = -357.710903602     Coul =  10113.1303182    
                              N = 403.99934418    
                            current damping = 0.250
 
          Norm of current diis error: 0.13406E-04
          max. resid. norm for Fia-block=  1.952D-07 for orbital    197a         
          max. resid. fock norm         =  4.492D-05 for orbital    768a         
          irrep a   : virtual orbitals shifted by    0.00141

 ITERATION  ENERGY          1e-ENERGY        2e-ENERGY     RMS[dD(SAO)]   TOL
  25  -2635.8947091118    -21250.629679     9755.4193919    0.290D-04 0.261D-14
                            Exc = -357.710901988     Coul =  10113.1302939    
                              N = 403.99934418    
                            current damping = 0.100
 
          Norm of current diis error: 0.82047E-05
          max. resid. norm for Fia-block=  1.405D-07 for orbital    198a         
          max. resid. fock norm         =  2.216D-05 for orbital    768a         
          irrep a   : virtual orbitals shifted by    0.01324
          mo-orthogonalization: Cholesky decomposition

 ITERATION  ENERGY          1e-ENERGY        2e-ENERGY     RMS[dD(SAO)]   TOL
  26  -2635.8947091117    -21250.629716     9755.4194291    0.166D-04 0.233D-14
                            Exc = -357.710900688     Coul =  10113.1303298    
                              N = 403.99934418    
                            current damping = 0.150
 
          Norm of current diis error: 0.62434E-05
          max. resid. norm for Fia-block=  7.533D-08 for orbital    192a         
          max. resid. fock norm         =  2.522D-05 for orbital    882a         
          irrep a   : virtual orbitals shifted by    0.00929

 ITERATION  ENERGY          1e-ENERGY        2e-ENERGY     RMS[dD(SAO)]   TOL
  27  -2635.8947091235    -21250.629715     9755.4194281    0.136D-04 0.214D-14
                            Exc = -357.710901585     Coul =  10113.1303297    
                              N = 403.99934418    
                            current damping = 0.200
 
          Norm of current diis error: 0.19292E-05
          max. resid. norm for Fia-block=  1.652D-07 for orbital    130a         
          max. resid. fock norm         =  5.585D-05 for orbital    882a         
          irrep a   : virtual orbitals shifted by    0.00535

 ITERATION  ENERGY          1e-ENERGY        2e-ENERGY     RMS[dD(SAO)]   TOL
  28  -2635.8947091259    -21250.629707     9755.4194201    0.307D-04 0.182D-14
                            Exc = -357.710901710     Coul =  10113.1303218    
                              N = 403.99934418    
                            current damping = 0.050
 
          Norm of current diis error: 0.13002E-05
          max. resid. norm for Fia-block=  1.074D-07 for orbital    202a         
          max. resid. fock norm         =  3.653D-05 for orbital    599a         
          irrep a   : virtual orbitals shifted by    0.01718

 ITERATION  ENERGY          1e-ENERGY        2e-ENERGY     RMS[dD(SAO)]   TOL
  29  -2635.8947091128    -21250.629707     9755.4194204    0.307D-04 0.161D-14
                            Exc = -357.710901720     Coul =  10113.1303221    
                              N = 403.99934418    
                            current damping = 0.100
 
          Norm of current diis error: 0.61295E-06
          max. resid. norm for Fia-block=  1.961D-07 for orbital    198a         
          max. resid. fock norm         =  6.837D-05 for orbital    759a         
          irrep a   : virtual orbitals shifted by    0.01324

 ITERATION  ENERGY          1e-ENERGY        2e-ENERGY     RMS[dD(SAO)]   TOL
  30  -2635.8947091199    -21250.629708     9755.4194217    0.538D-04 0.141D-14
                            Exc = -357.710901652     Coul =  10113.1303234    
                              N = 403.99934418    
                            current damping = 0.050
 
          Norm of current diis error: 0.25965E-06
          max. resid. norm for Fia-block=  2.231D-07 for orbital    198a         
          max. resid. fock norm         =  7.670D-05 for orbital    759a         
          irrep a   : virtual orbitals shifted by    0.01718
          mo-orthogonalization: Cholesky decomposition

 ITERATION  ENERGY          1e-ENERGY        2e-ENERGY     RMS[dD(SAO)]   TOL
  31  -2635.8947091235    -21250.629708     9755.4194214    0.621D-04 0.127D-14
                            Exc = -357.710901677     Coul =  10113.1303231    
                              N = 403.99934418    
                            current damping = 0.100
 
          Norm of current diis error: 0.13285E-06
          max. resid. norm for Fia-block=  3.755D-07 for orbital    198a         
          max. resid. fock norm         =  1.212D-04 for orbital    759a         
          irrep a   : virtual orbitals shifted by    0.01324

 ITERATION  ENERGY          1e-ENERGY        2e-ENERGY     RMS[dD(SAO)]   TOL
  32  -2635.8947091135    -21250.629708     9755.4194215    0.978D-04 0.114D-14
                            Exc = -357.710901681     Coul =  10113.1303232    
                              N = 403.99934418    
                            current damping = 0.150
 
          Norm of current diis error: 0.67733E-07
          max. resid. norm for Fia-block=  5.463D-07 for orbital    198a         
          max. resid. fock norm         =  1.661D-04 for orbital    759a         
          irrep a   : virtual orbitals shifted by    0.00929

 ITERATION  ENERGY          1e-ENERGY        2e-ENERGY     RMS[dD(SAO)]   TOL
  33  -2635.8947091227    -21250.629708     9755.4194211    0.131D-03 0.103D-14
                            Exc = -357.710901684     Coul =  10113.1303228    
                              N = 403.99934418    
                            current damping = 0.200
 
          Norm of current diis error: 0.12124E-06
          max. resid. norm for Fia-block=  2.508D-07 for orbital    198a         
          max. resid. fock norm         =  7.394D-05 for orbital    759a         
          irrep a   : virtual orbitals shifted by    0.00535

 ITERATION  ENERGY          1e-ENERGY        2e-ENERGY     RMS[dD(SAO)]   TOL
  34  -2635.8947090971    -21250.629708     9755.4194214    0.552D-04 0.102D-14
                            Exc = -357.710901678     Coul =  10113.1303230    
                              N = 403.99934418    
                            current damping = 0.250
 
          Norm of current diis error: 0.60283E-07
          max. resid. norm for Fia-block=  2.810D-07 for orbital    198a         
          max. resid. fock norm         =  8.230D-05 for orbital    759a         
          irrep a   : virtual orbitals shifted by    0.00141

 ITERATION  ENERGY          1e-ENERGY        2e-ENERGY     RMS[dD(SAO)]   TOL
  35  -2635.8947091323    -21250.629708     9755.4194214    0.585D-04 0.102D-14
                            Exc = -357.710901678     Coul =  10113.1303230    
                              N = 403.99934418    
                            current damping = 0.100
 
          Norm of current diis error: 0.51014E-07
          max. resid. norm for Fia-block=  4.441D-07 for orbital    192a         
          max. resid. fock norm         =  1.201D-04 for orbital    618a         
          irrep a   : virtual orbitals shifted by    0.01324
          mo-orthogonalization: Cholesky decomposition

 ITERATION  ENERGY          1e-ENERGY        2e-ENERGY     RMS[dD(SAO)]   TOL
  36  -2635.8947090979    -21250.629708     9755.4194213    0.916D-04 0.106D-14
                            Exc = -357.710901684     Coul =  10113.1303229    
                              N = 403.99934418    
                            current damping = 0.150
 
          Norm of current diis error: 0.86929E-07
          max. resid. norm for Fia-block=  4.414D-07 for orbital    192a         
          max. resid. fock norm         =  1.253D-04 for orbital    868a         
          irrep a   : virtual orbitals shifted by    0.00929

 ITERATION  ENERGY          1e-ENERGY        2e-ENERGY     RMS[dD(SAO)]   TOL
  37  -2635.8947090831    -21250.629708     9755.4194212    0.820D-04 0.106D-14
                            Exc = -357.710901689     Coul =  10113.1303229    
                              N = 403.99934418    
                            current damping = 0.200
 
          Norm of current diis error: 0.11738E-06
          max. resid. norm for Fia-block=  1.648D-07 for orbital    187a         
          max. resid. fock norm         =  5.416D-05 for orbital    759a         
          irrep a   : virtual orbitals shifted by    0.00535

 ITERATION  ENERGY          1e-ENERGY        2e-ENERGY     RMS[dD(SAO)]   TOL
  38  -2635.8947090917    -21250.629708     9755.4194212    0.407D-04 0.103D-14
                            Exc = -357.710901690     Coul =  10113.1303229    
                              N = 403.99934418    
                            current damping = 0.250
 
          Norm of current diis error: 0.13449E-06
          max. resid. norm for Fia-block=  4.784D-08 for orbital    187a         
          max. resid. fock norm         =  1.501D-05 for orbital    759a         
          irrep a   : virtual orbitals shifted by    0.00141

 ITERATION  ENERGY          1e-ENERGY        2e-ENERGY     RMS[dD(SAO)]   TOL
  39  -2635.8947090911    -21250.629708     9755.4194212    0.112D-04 0.102D-14
                            Exc = -357.710901691     Coul =  10113.1303229    
                              N = 403.99934418    
                            current damping = 0.300
 
          Norm of current diis error: 0.13892E-06
          max. resid. norm for Fia-block=  6.728D-07 for orbital    187a         
          max. resid. fock norm         =  2.230D-04 for orbital    759a         

 ITERATION  ENERGY          1e-ENERGY        2e-ENERGY     RMS[dD(SAO)]   TOL
  40  -2635.8947091316    -21250.629708     9755.4194213    0.153D-03 0.230D-14
                            Exc = -357.710901692     Coul =  10113.1303230    
                              N = 403.99934418    
                            current damping = 0.350
 
          Norm of current diis error: 0.17195E-06
          max. resid. norm for Fia-block=  1.526D-06 for orbital    198a         
          max. resid. fock norm         =  5.148D-04 for orbital    759a         
          mo-orthogonalization: Cholesky decomposition

 ITERATION  ENERGY          1e-ENERGY        2e-ENERGY     RMS[dD(SAO)]   TOL
  41  -2635.8947091233    -21250.629708     9755.4194211    0.332D-03 0.224D-14
                            Exc = -357.710901694     Coul =  10113.1303228    
                              N = 403.99934418    
                            current damping = 0.400
 
          Norm of current diis error: 0.12544E-06
          max. resid. norm for Fia-block=  7.985D-07 for orbital    198a         
          max. resid. fock norm         =  2.526D-04 for orbital    618a         

 ITERATION  ENERGY          1e-ENERGY        2e-ENERGY     RMS[dD(SAO)]   TOL
  42  -2635.8947091028    -21250.629708     9755.4194213    0.152D-03 0.218D-14
                            Exc = -357.710901688     Coul =  10113.1303229    
                              N = 403.99934418    
                            current damping = 0.450
 
          Norm of current diis error: 0.76774E-07
          max. resid. norm for Fia-block=  3.784D-07 for orbital    192a         
          max. resid. fock norm         =  1.020D-04 for orbital    868a         

 ITERATION  ENERGY          1e-ENERGY        2e-ENERGY     RMS[dD(SAO)]   TOL
  43  -2635.8947091007    -21250.629708     9755.4194213    0.562D-04 0.807D-14
                            Exc = -357.710901687     Coul =  10113.1303230    
                              N = 403.99934418    
                            current damping = 0.500
 
          Norm of current diis error: 0.52303E-07
          max. resid. norm for Fia-block=  6.262D-07 for orbital    192a         
          max. resid. fock norm         =  1.756D-04 for orbital    759a         

 ITERATION  ENERGY          1e-ENERGY        2e-ENERGY     RMS[dD(SAO)]   TOL
  44  -2635.8947090988    -21250.629708     9755.4194214    0.108D-03 0.512D-14
                            Exc = -357.710901682     Coul =  10113.1303230    
                              N = 403.99934418    
                            current damping = 0.550
 
          Norm of current diis error: 0.36522E-07
          max. resid. norm for Fia-block=  2.348D-07 for orbital    187a         
          max. resid. fock norm         =  6.815D-05 for orbital    685a         

 ITERATION  ENERGY          1e-ENERGY        2e-ENERGY     RMS[dD(SAO)]   TOL
  45  -2635.8947091029    -21250.629708     9755.4194214    0.365D-04 0.407D-14
                            Exc = -357.710901682     Coul =  10113.1303230    
                              N = 403.99934418    
                            current damping = 0.400
 
          Norm of current diis error: 0.22597E-07
          max. resid. norm for Fia-block=  9.739D-08 for orbital    189a         
          max. resid. fock norm         =  2.881D-05 for orbital    599a         
          mo-orthogonalization: Cholesky decomposition

 ITERATION  ENERGY          1e-ENERGY        2e-ENERGY     RMS[dD(SAO)]   TOL
  46  -2635.8947091283    -21250.629708     9755.4194213    0.174D-04 0.363D-14
                            Exc = -357.710901682     Coul =  10113.1303230    
                              N = 403.99934418    
                            current damping = 0.450
 
          Norm of current diis error: 0.18105E-07
          max. resid. norm for Fia-block=  4.923D-08 for orbital    161a         
          max. resid. fock norm         =  1.562D-05 for orbital    599a         

 ITERATION  ENERGY          1e-ENERGY        2e-ENERGY     RMS[dD(SAO)]   TOL
  47  -2635.8947090910    -21250.629708     9755.4194214    0.111D-04 0.333D-14
                            Exc = -357.710901682     Coul =  10113.1303231    
                              N = 403.99934418    
                            current damping = 0.500
 
          Norm of current diis error: 0.11811E-07
          max. resid. norm for Fia-block=  5.656D-08 for orbital    187a         
          max. resid. fock norm         =  1.688D-05 for orbital    759a         

 ITERATION  ENERGY          1e-ENERGY        2e-ENERGY     RMS[dD(SAO)]   TOL
  48  -2635.8947091152    -21250.629708     9755.4194214    0.888D-05 0.306D-14
                            Exc = -357.710901682     Coul =  10113.1303230    
                              N = 403.99934418    
                            current damping = 0.550
 
          Norm of current diis error: 0.62873E-08
          max. resid. norm for Fia-block=  5.799D-08 for orbital    187a         
          max. resid. fock norm         =  2.389D-05 for orbital    759a         

 ITERATION  ENERGY          1e-ENERGY        2e-ENERGY     RMS[dD(SAO)]   TOL
  49  -2635.8947091184    -21250.629708     9755.4194214    0.106D-04 0.272D-14
                            Exc = -357.710901682     Coul =  10113.1303230    
                              N = 403.99934418    
                            current damping = 0.600
 
          Norm of current diis error: 0.47284E-08
          max. resid. norm for Fia-block=  5.686D-08 for orbital    198a         
          max. resid. fock norm         =  2.411D-05 for orbital    754a         

 ITERATION  ENERGY          1e-ENERGY        2e-ENERGY     RMS[dD(SAO)]   TOL
  50  -2635.8947091241    -21250.629708     9755.4194213    0.114D-04 0.235D-14
                            Exc = -357.710901681     Coul =  10113.1303230    
                              N = 403.99934418    
                            current damping = 0.450
 
          Norm of current diis error: 0.52390E-08
          max. resid. norm for Fia-block=  6.990D-08 for orbital    198a         
          max. resid. fock norm         =  2.604D-05 for orbital    626a         
          mo-orthogonalization: Cholesky decomposition

 ITERATION  ENERGY          1e-ENERGY        2e-ENERGY     RMS[dD(SAO)]   TOL
  51  -2635.8947091258    -21250.629708     9755.4194213    0.156D-04 0.201D-14
                            Exc = -357.710901681     Coul =  10113.1303230    
                              N = 403.99934418    
                            current damping = 0.300
 
          Norm of current diis error: 0.11229E-07
          max. resid. norm for Fia-block=  2.257D-08 for orbital    187a         
          max. resid. fock norm         =  6.984D-06 for orbital    635a         

 ITERATION  ENERGY          1e-ENERGY        2e-ENERGY     RMS[dD(SAO)]   TOL
  52  -2635.8947091227    -21250.629708     9755.4194213    0.492D-05 0.196D-14
                            Exc = -357.710901681     Coul =  10113.1303230    
                              N = 403.99934418    
                            current damping = 0.350
 
          Norm of current diis error: 0.11923E-07
          max. resid. norm for Fia-block=  2.848D-08 for orbital    198a         
          max. resid. fock norm         =  1.034D-05 for orbital    626a         

 ITERATION  ENERGY          1e-ENERGY        2e-ENERGY     RMS[dD(SAO)]   TOL
  53  -2635.8947091244    -21250.629708     9755.4194213    0.611D-05 0.186D-14
                            Exc = -357.710901681     Coul =  10113.1303230    
                              N = 403.99934418    
                            current damping = 0.400
 
          Norm of current diis error: 0.13458E-07
          max. resid. norm for Fia-block=  4.350D-08 for orbital    198a         
          max. resid. fock norm         =  1.483D-05 for orbital    626a         

 ITERATION  ENERGY          1e-ENERGY        2e-ENERGY     RMS[dD(SAO)]   TOL
  54  -2635.8947091123    -21250.629708     9755.4194213    0.946D-05 0.174D-14
                            Exc = -357.710901680     Coul =  10113.1303230    
                              N = 403.99934418    
                            current damping = 0.450
 
          Norm of current diis error: 0.16474E-07
          max. resid. norm for Fia-block=  1.302D-07 for orbital    192a         
          max. resid. fock norm         =  3.650D-05 for orbital    635a         

 ITERATION  ENERGY          1e-ENERGY        2e-ENERGY     RMS[dD(SAO)]   TOL
  55  -2635.8947090948    -21250.629708     9755.4194214    0.235D-04 0.166D-14
                            Exc = -357.710901680     Coul =  10113.1303230    
                              N = 403.99934418    
                            current damping = 0.500
 
          Norm of current diis error: 0.20264E-07
          max. resid. norm for Fia-block=  1.348D-07 for orbital    192a         
          max. resid. fock norm         =  4.310D-05 for orbital    635a         
          mo-orthogonalization: Cholesky decomposition

 ITERATION  ENERGY          1e-ENERGY        2e-ENERGY     RMS[dD(SAO)]   TOL
  56  -2635.8947091138    -21250.629708     9755.4194214    0.239D-04 0.163D-14
                            Exc = -357.710901680     Coul =  10113.1303230    
                              N = 403.99934418    
                            current damping = 0.550
 
          Norm of current diis error: 0.27270E-07
          max. resid. norm for Fia-block=  7.239D-08 for orbital    192a         
          max. resid. fock norm         =  2.005D-05 for orbital    635a         

 ITERATION  ENERGY          1e-ENERGY        2e-ENERGY     RMS[dD(SAO)]   TOL
  57  -2635.8947091113    -21250.629708     9755.4194214    0.125D-04 0.161D-14
                            Exc = -357.710901680     Coul =  10113.1303230    
                              N = 403.99934418    
                            current damping = 0.600
 
          Norm of current diis error: 0.30515E-07
          max. resid. norm for Fia-block=  1.723D-07 for orbital    192a         
          max. resid. fock norm         =  5.478D-05 for orbital    759a         

 ITERATION  ENERGY          1e-ENERGY        2e-ENERGY     RMS[dD(SAO)]   TOL
  58  -2635.8947091292    -21250.629708     9755.4194213    0.268D-04 0.158D-14
                            Exc = -357.710901681     Coul =  10113.1303230    
                              N = 403.99934418    
                            current damping = 0.650
 
          Norm of current diis error: 0.33189E-07
          max. resid. norm for Fia-block=  1.656D-07 for orbital    192a         
          max. resid. fock norm         =  6.741D-05 for orbital    759a         

 ITERATION  ENERGY          1e-ENERGY        2e-ENERGY     RMS[dD(SAO)]   TOL
  59  -2635.8947091182    -21250.629708     9755.4194213    0.276D-04 0.155D-14
                            Exc = -357.710901682     Coul =  10113.1303229    
                              N = 403.99934418    
                            current damping = 0.700
 
          Norm of current diis error: 0.40040E-07
          max. resid. norm for Fia-block=  2.809D-07 for orbital    198a         
          max. resid. fock norm         =  1.071D-04 for orbital    754a         

 ITERATION  ENERGY          1e-ENERGY        2e-ENERGY     RMS[dD(SAO)]   TOL
  60  -2635.8947090623    -21250.629708     9755.4194213    0.530D-04 0.152D-14
                            Exc = -357.710901683     Coul =  10113.1303230    
                              N = 403.99934418    
                            current damping = 0.750
 
          Norm of current diis error: 0.41829E-07
          max. resid. norm for Fia-block=  3.281D-07 for orbital    198a         
          max. resid. fock norm         =  1.093D-04 for orbital    740a         
          mo-orthogonalization: Cholesky decomposition

 ITERATION  ENERGY          1e-ENERGY        2e-ENERGY     RMS[dD(SAO)]   TOL
  61  -2635.8947090704    -21250.629708     9755.4194213    0.556D-04 0.150D-14
                            Exc = -357.710901685     Coul =  10113.1303230    
                              N = 403.99934418    
                            current damping = 0.800
 
          Norm of current diis error: 0.38258E-07
          max. resid. norm for Fia-block=  2.415D-07 for orbital    192a         
          max. resid. fock norm         =  6.944D-05 for orbital    685a         

 ITERATION  ENERGY          1e-ENERGY        2e-ENERGY     RMS[dD(SAO)]   TOL
  62  -2635.8947090639    -21250.629708     9755.4194214    0.388D-04 0.147D-14
                            Exc = -357.710901685     Coul =  10113.1303230    
                              N = 403.99934418    
                            current damping = 0.850
 
          Norm of current diis error: 0.54979E-07
          max. resid. norm for Fia-block=  2.831D-07 for orbital    192a         
          max. resid. fock norm         =  8.982D-05 for orbital    626a         

 ITERATION  ENERGY          1e-ENERGY        2e-ENERGY     RMS[dD(SAO)]   TOL
  63  -2635.8947090541    -21250.629708     9755.4194214    0.481D-04 0.145D-14
                            Exc = -357.710901685     Coul =  10113.1303231    
                              N = 403.99934418    
                            current damping = 0.900
 
          Norm of current diis error: 0.60107E-07
          max. resid. norm for Fia-block=  5.504D-07 for orbital    192a         
          max. resid. fock norm         =  1.264D-04 for orbital    882a         

 ITERATION  ENERGY          1e-ENERGY        2e-ENERGY     RMS[dD(SAO)]   TOL
  64  -2635.8947091126    -21250.629708     9755.4194214    0.666D-04 0.807D-14
                            Exc = -357.710901684     Coul =  10113.1303231    
                              N = 403.99934418    
                            current damping = 0.950
 
          Norm of current diis error: 0.47761E-07
          max. resid. norm for Fia-block=  2.113D-07 for orbital     99a         
          max. resid. fock norm         =  7.394D-05 for orbital    740a         

 ITERATION  ENERGY          1e-ENERGY        2e-ENERGY     RMS[dD(SAO)]   TOL
  65  -2635.8947090989    -21250.629708     9755.4194214    0.321D-04 0.512D-14
                            Exc = -357.710901684     Coul =  10113.1303231    
                              N = 403.99934418    
                            current damping = 1.000
 
          Norm of current diis error: 0.24347E-07
          max. resid. norm for Fia-block=  2.970D-07 for orbital    198a         
          max. resid. fock norm         =  9.714D-05 for orbital    740a         
          mo-orthogonalization: Cholesky decomposition

 ITERATION  ENERGY          1e-ENERGY        2e-ENERGY     RMS[dD(SAO)]   TOL
  66  -2635.8947091110    -21250.629708     9755.4194214    0.442D-04 0.319D-14
                            Exc = -357.710901683     Coul =  10113.1303231    
                              N = 403.99934418    
                            current damping = 0.850
 
          Norm of current diis error: 0.15398E-07
          max. resid. norm for Fia-block=  2.158D-07 for orbital    198a         
          max. resid. fock norm         =  6.560D-05 for orbital    630a         

 ITERATION  ENERGY          1e-ENERGY        2e-ENERGY     RMS[dD(SAO)]   TOL
  67  -2635.8947091165    -21250.629708     9755.4194213    0.344D-04 0.265D-14
                            Exc = -357.710901682     Coul =  10113.1303230    
                              N = 403.99934418    
                            current damping = 0.700
 
          Norm of current diis error: 0.12510E-07
          max. resid. norm for Fia-block=  2.319D-07 for orbital    192a         
          max. resid. fock norm         =  6.053D-05 for orbital    630a         

 ITERATION  ENERGY          1e-ENERGY        2e-ENERGY     RMS[dD(SAO)]   TOL
  68  -2635.8947091095    -21250.629708     9755.4194213    0.328D-04 0.238D-14
                            Exc = -357.710901682     Coul =  10113.1303230    
                              N = 403.99934418    
                            current damping = 0.750
 
          Norm of current diis error: 0.11858E-07
          max. resid. norm for Fia-block=  1.244D-07 for orbital    192a         
          max. resid. fock norm         =  3.175D-05 for orbital    882a         

 ITERATION  ENERGY          1e-ENERGY        2e-ENERGY     RMS[dD(SAO)]   TOL
  69  -2635.8947091256    -21250.629708     9755.4194213    0.149D-04 0.230D-14
                            Exc = -357.710901683     Coul =  10113.1303230    
                              N = 403.99934418    
                            current damping = 0.600
 
          Norm of current diis error: 0.97825E-08
          max. resid. norm for Fia-block=  1.260D-07 for orbital    189a         
          max. resid. fock norm         =  3.458D-05 for orbital    882a         

 ITERATION  ENERGY          1e-ENERGY        2e-ENERGY     RMS[dD(SAO)]   TOL
  70  -2635.8947091236    -21250.629708     9755.4194213    0.152D-04 0.223D-14
                            Exc = -357.710901683     Coul =  10113.1303230    
                              N = 403.99934418    
                            current damping = 0.650
 
          Norm of current diis error: 0.91505E-08
          max. resid. norm for Fia-block=  9.363D-08 for orbital    189a         
          max. resid. fock norm         =  2.626D-05 for orbital    882a         
          mo-orthogonalization: Cholesky decomposition

 ITERATION  ENERGY          1e-ENERGY        2e-ENERGY     RMS[dD(SAO)]   TOL
  71  -2635.8947091499    -21250.629708     9755.4194213    0.105D-04 0.218D-14
                            Exc = -357.710901683     Coul =  10113.1303230    
                              N = 403.99934418    
                            current damping = 0.700
 
          Norm of current diis error: 0.82125E-08
          max. resid. norm for Fia-block=  1.292D-07 for orbital    189a         
          max. resid. fock norm         =  3.657D-05 for orbital    882a         

 ITERATION  ENERGY          1e-ENERGY        2e-ENERGY     RMS[dD(SAO)]   TOL
  72  -2635.8947091252    -21250.629708     9755.4194212    0.141D-04 0.211D-14
                            Exc = -357.710901684     Coul =  10113.1303229    
                              N = 403.99934418    
                            current damping = 0.750
 
          Norm of current diis error: 0.74445E-08
          max. resid. norm for Fia-block=  7.360D-08 for orbital    189a         
          max. resid. fock norm         =  2.095D-05 for orbital    882a         

 ITERATION  ENERGY          1e-ENERGY        2e-ENERGY     RMS[dD(SAO)]   TOL
  73  -2635.8947091470    -21250.629708     9755.4194212    0.852D-05 0.204D-14
                            Exc = -357.710901684     Coul =  10113.1303229    
                              N = 403.99934418    
                            current damping = 0.800
 
          Norm of current diis error: 0.87782E-08
          max. resid. norm for Fia-block=  3.415D-08 for orbital    189a         
          max. resid. fock norm         =  9.853D-06 for orbital    882a         

 ITERATION  ENERGY          1e-ENERGY        2e-ENERGY     RMS[dD(SAO)]   TOL
  74  -2635.8947091426    -21250.629708     9755.4194213    0.388D-05 0.200D-14
                            Exc = -357.710901684     Coul =  10113.1303229    
                              N = 403.99934418    
                            current damping = 0.850
 
          Norm of current diis error: 0.92467E-08
          max. resid. norm for Fia-block=  1.648D-08 for orbital    189a         
          max. resid. fock norm         =  4.730D-06 for orbital    882a         

 ITERATION  ENERGY          1e-ENERGY        2e-ENERGY     RMS[dD(SAO)]   TOL
  75  -2635.8947091392    -21250.629708     9755.4194213    0.179D-05 0.198D-14
                            Exc = -357.710901684     Coul =  10113.1303229    
                              N = 403.99934418    
                            current damping = 0.900
 
          Norm of current diis error: 0.93484E-08
          max. resid. norm for Fia-block=  5.026D-08 for orbital    135a         
          max. resid. fock norm         =  1.507D-05 for orbital    882a         
          mo-orthogonalization: Cholesky decomposition

 ITERATION  ENERGY          1e-ENERGY        2e-ENERGY     RMS[dD(SAO)]   TOL
  76  -2635.8947091410    -21250.629708     9755.4194213    0.652D-05 0.230D-14
                            Exc = -357.710901684     Coul =  10113.1303229    
                              N = 403.99934418    
                            current damping = 0.950
 
          Norm of current diis error: 0.86492E-08
          max. resid. norm for Fia-block=  6.405D-08 for orbital    192a         
          max. resid. fock norm         =  2.104D-05 for orbital    868a         

 ITERATION  ENERGY          1e-ENERGY        2e-ENERGY     RMS[dD(SAO)]   TOL
  77  -2635.8947091418    -21250.629708     9755.4194212    0.835D-05 0.224D-14
                            Exc = -357.710901684     Coul =  10113.1303229    
                              N = 403.99934418    
                            current damping = 1.000
 
          Norm of current diis error: 0.18422E-07
          max. resid. norm for Fia-block=  3.572D-08 for orbital    192a         
          max. resid. fock norm         =  1.151D-05 for orbital    868a         

 ITERATION  ENERGY          1e-ENERGY        2e-ENERGY     RMS[dD(SAO)]   TOL
  78  -2635.8947091293    -21250.629708     9755.4194212    0.464D-05 0.230D-14
                            Exc = -357.710901684     Coul =  10113.1303229    
                              N = 403.99934418    
                            current damping = 1.050
 
          Norm of current diis error: 0.14320E-07
          max. resid. norm for Fia-block=  2.317D-08 for orbital    189a         
          max. resid. fock norm         =  6.919D-06 for orbital    882a         

 ITERATION  ENERGY          1e-ENERGY        2e-ENERGY     RMS[dD(SAO)]   TOL
  79  -2635.8947091378    -21250.629708     9755.4194212    0.222D-05 0.224D-14
                            Exc = -357.710901684     Coul =  10113.1303229    
                              N = 403.99934418    
                            current damping = 1.100
 
          Norm of current diis error: 0.13276E-07
          max. resid. norm for Fia-block=  7.695D-08 for orbital    198a         
          max. resid. fock norm         =  2.404D-05 for orbital    759a         

 ITERATION  ENERGY          1e-ENERGY        2e-ENERGY     RMS[dD(SAO)]   TOL
  80  -2635.8947091206    -21250.629708     9755.4194212    0.108D-04 0.218D-14
                            Exc = -357.710901684     Coul =  10113.1303229    
                              N = 403.99934418    
                            current damping = 1.150
 
          Norm of current diis error: 0.61928E-08
          max. resid. norm for Fia-block=  8.156D-08 for orbital    161a         
          max. resid. fock norm         =  2.659D-05 for orbital    754a         
          mo-orthogonalization: Cholesky decomposition

 ITERATION  ENERGY          1e-ENERGY        2e-ENERGY     RMS[dD(SAO)]   TOL
  81  -2635.8947091331    -21250.629708     9755.4194213    0.962D-05 0.213D-14
                            Exc = -357.710901684     Coul =  10113.1303230    
                              N = 403.99934418    
                            current damping = 1.200
 
          Norm of current diis error: 0.26147E-07
          max. resid. norm for Fia-block=  4.882D-08 for orbital    189a         
          max. resid. fock norm         =  1.421D-05 for orbital    754a         

 ITERATION  ENERGY          1e-ENERGY        2e-ENERGY     RMS[dD(SAO)]   TOL
  82  -2635.8947091395    -21250.629708     9755.4194213    0.552D-05 0.208D-14
                            Exc = -357.710901684     Coul =  10113.1303230    
                              N = 403.99934418    
                            current damping = 1.050
 
          Norm of current diis error: 0.26956E-07
          max. resid. norm for Fia-block=  3.624D-08 for orbital    189a         
          max. resid. fock norm         =  1.038D-05 for orbital    882a         

 ITERATION  ENERGY          1e-ENERGY        2e-ENERGY     RMS[dD(SAO)]   TOL
  83  -2635.8947091182    -21250.629708     9755.4194213    0.363D-05 0.204D-14
                            Exc = -357.710901683     Coul =  10113.1303230    
                              N = 403.99934418    
                            current damping = 1.100
 
          Norm of current diis error: 0.19612E-07
          max. resid. norm for Fia-block=  3.081D-08 for orbital    187a         
          max. resid. fock norm         =  9.113D-06 for orbital    759a         

 ITERATION  ENERGY          1e-ENERGY        2e-ENERGY     RMS[dD(SAO)]   TOL
  84  -2635.8947091326    -21250.629708     9755.4194213    0.335D-05 0.199D-14
                            Exc = -357.710901683     Coul =  10113.1303230    
                              N = 403.99934418    
                            current damping = 1.150
 
          Norm of current diis error: 0.19916E-07
          max. resid. norm for Fia-block=  2.527D-07 for orbital    192a         
          max. resid. fock norm         =  8.393D-05 for orbital    635a         

 ITERATION  ENERGY          1e-ENERGY        2e-ENERGY     RMS[dD(SAO)]   TOL
  85  -2635.8947091107    -21250.629708     9755.4194213    0.291D-04 0.807D-14
                            Exc = -357.710901684     Coul =  10113.1303229    
                              N = 403.99934418    
                            current damping = 1.200
 
          Norm of current diis error: 0.21632E-07
          max. resid. norm for Fia-block=  2.553D-07 for orbital    189a         
          max. resid. fock norm         =  7.524D-05 for orbital    882a         
          mo-orthogonalization: Cholesky decomposition

 ITERATION  ENERGY          1e-ENERGY        2e-ENERGY     RMS[dD(SAO)]   TOL
  86  -2635.8947091224    -21250.629708     9755.4194213    0.223D-04 0.512D-14
                            Exc = -357.710901684     Coul =  10113.1303230    
                              N = 403.99934418    
                            current damping = 1.250
 
          Norm of current diis error: 0.20935E-07
          max. resid. norm for Fia-block=  1.986D-07 for orbital    192a         
          max. resid. fock norm         =  6.720D-05 for orbital    882a         

 ITERATION  ENERGY          1e-ENERGY        2e-ENERGY     RMS[dD(SAO)]   TOL
  87  -2635.8947091117    -21250.629708     9755.4194213    0.179D-04 0.369D-14
                            Exc = -357.710901683     Coul =  10113.1303230    
                              N = 403.99934418    
                            current damping = 1.300
 
          Norm of current diis error: 0.18297E-07
          max. resid. norm for Fia-block=  1.398D-07 for orbital    130a         
          max. resid. fock norm         =  4.654D-05 for orbital    882a         

 ITERATION  ENERGY          1e-ENERGY        2e-ENERGY     RMS[dD(SAO)]   TOL
  88  -2635.8947091061    -21250.629708     9755.4194213    0.127D-04 0.307D-14
                            Exc = -357.710901683     Coul =  10113.1303230    
                              N = 403.99934418    
                            current damping = 1.350
 
          Norm of current diis error: 0.17424E-07
          max. resid. norm for Fia-block=  2.654D-07 for orbital    187a         
          max. resid. fock norm         =  9.339D-05 for orbital    754a         

 ITERATION  ENERGY          1e-ENERGY        2e-ENERGY     RMS[dD(SAO)]   TOL
  89  -2635.8947091184    -21250.629708     9755.4194214    0.261D-04 0.236D-14
                            Exc = -357.710901682     Coul =  10113.1303230    
                              N = 403.99934418    
                            current damping = 1.200
 
          Norm of current diis error: 0.24217E-07
          max. resid. norm for Fia-block=  1.796D-07 for orbital    130a         
          max. resid. fock norm         =  6.366D-05 for orbital    754a         

 ITERATION  ENERGY          1e-ENERGY        2e-ENERGY     RMS[dD(SAO)]   TOL
  90  -2635.8947091204    -21250.629708     9755.4194214    0.187D-04 0.207D-14
                            Exc = -357.710901681     Coul =  10113.1303231    
                              N = 403.99934418    
                            current damping = 1.050
 
          Norm of current diis error: 0.28398E-07
          max. resid. norm for Fia-block=  1.032D-07 for orbital    130a         
          max. resid. fock norm         =  3.645D-05 for orbital    882a         
          mo-orthogonalization: Cholesky decomposition

 ITERATION  ENERGY          1e-ENERGY        2e-ENERGY     RMS[dD(SAO)]   TOL
  91  -2635.8947091295    -21250.629708     9755.4194214    0.111D-04 0.196D-14
                            Exc = -357.710901681     Coul =  10113.1303231    
                              N = 403.99934418    
                            current damping = 0.900
 
          Norm of current diis error: 0.31682E-07
          max. resid. norm for Fia-block=  6.164D-08 for orbital    187a         
          max. resid. fock norm         =  2.337D-05 for orbital    754a         

 ITERATION  ENERGY          1e-ENERGY        2e-ENERGY     RMS[dD(SAO)]   TOL
  92  -2635.8947091239    -21250.629708     9755.4194214    0.763D-05 0.189D-14
                            Exc = -357.710901680     Coul =  10113.1303231    
                              N = 403.99934418    
                            current damping = 0.950
 
          Norm of current diis error: 0.28794E-07
          max. resid. norm for Fia-block=  1.894D-07 for orbital    105a         
          max. resid. fock norm         =  6.109D-05 for orbital    635a         

 ITERATION  ENERGY          1e-ENERGY        2e-ENERGY     RMS[dD(SAO)]   TOL
  93  -2635.8947091248    -21250.629708     9755.4194214    0.222D-04 0.170D-14
                            Exc = -357.710901681     Coul =  10113.1303230    
                              N = 403.99934418    
                            current damping = 1.000
 
          Norm of current diis error: 0.26452E-07
          max. resid. norm for Fia-block=  2.377D-07 for orbital    161a         
          max. resid. fock norm         =  7.289D-05 for orbital    685a         

 ITERATION  ENERGY          1e-ENERGY        2e-ENERGY     RMS[dD(SAO)]   TOL
  94  -2635.8947091191    -21250.629708     9755.4194213    0.344D-04 0.163D-14
                            Exc = -357.710901681     Coul =  10113.1303230    
                              N = 403.99934418    
                            current damping = 1.050
 
          Norm of current diis error: 0.25957E-07
          max. resid. norm for Fia-block=  2.098D-07 for orbital    161a         
          max. resid. fock norm         =  5.600D-05 for orbital    636a         

 ITERATION  ENERGY          1e-ENERGY        2e-ENERGY     RMS[dD(SAO)]   TOL
  95  -2635.8947091189    -21250.629708     9755.4194213    0.293D-04 0.180D-14
                            Exc = -357.710901681     Coul =  10113.1303230    
                              N = 403.99934418    
                            current damping = 0.900
 
          Norm of current diis error: 0.27469E-07
          max. resid. norm for Fia-block=  8.819D-08 for orbital    161a         
          max. resid. fock norm         =  2.560D-05 for orbital    635a         
          mo-orthogonalization: Cholesky decomposition

 ITERATION  ENERGY          1e-ENERGY        2e-ENERGY     RMS[dD(SAO)]   TOL
  96  -2635.8947091319    -21250.629708     9755.4194213    0.153D-04 0.230D-14
                            Exc = -357.710901681     Coul =  10113.1303230    
                              N = 403.99934418    
                            current damping = 0.950
 
          Norm of current diis error: 0.15009E-07
          max. resid. norm for Fia-block=  1.423D-07 for orbital    147a         
          max. resid. fock norm         =  4.696D-05 for orbital    635a         

 ITERATION  ENERGY          1e-ENERGY        2e-ENERGY     RMS[dD(SAO)]   TOL
  97  -2635.8947091271    -21250.629708     9755.4194213    0.211D-04 0.228D-14
                            Exc = -357.710901681     Coul =  10113.1303230    
                              N = 403.99934418    
                            current damping = 1.000
 
          Norm of current diis error: 0.21566E-07
          max. resid. norm for Fia-block=  9.911D-08 for orbital     75a         
          max. resid. fock norm         =  3.934D-05 for orbital    635a         

 ITERATION  ENERGY          1e-ENERGY        2e-ENERGY     RMS[dD(SAO)]   TOL
  98  -2635.8947091276    -21250.629708     9755.4194214    0.146D-04 0.235D-14
                            Exc = -357.710901681     Coul =  10113.1303230    
                              N = 403.99934418    
                            current damping = 0.850
 
          Norm of current diis error: 0.10180E-07
          max. resid. norm for Fia-block=  1.259D-07 for orbital    161a         
          max. resid. fock norm         =  3.438D-05 for orbital    487a         

 ITERATION  ENERGY          1e-ENERGY        2e-ENERGY     RMS[dD(SAO)]   TOL
  99  -2635.8947091220    -21250.629708     9755.4194214    0.195D-04 0.230D-14
                            Exc = -357.710901681     Coul =  10113.1303230    
                              N = 403.99934418    
                            current damping = 0.900
 
          Norm of current diis error: 0.15057E-07
          max. resid. norm for Fia-block=  5.949D-08 for orbital     99a         
          max. resid. fock norm         =  1.906D-05 for orbital    635a         

 ITERATION  ENERGY          1e-ENERGY        2e-ENERGY     RMS[dD(SAO)]   TOL
 100  -2635.8947091238    -21250.629708     9755.4194213    0.744D-05 0.242D-14
                            Exc = -357.710901681     Coul =  10113.1303230    
                              N = 403.99934418    
                            current damping = 0.750
 
          Norm of current diis error: 0.16761E-07
          max. resid. norm for Fia-block=  5.143D-08 for orbital    161a         
          max. resid. fock norm         =  1.670D-05 for orbital    626a         
          mo-orthogonalization: Cholesky decomposition

 ITERATION  ENERGY          1e-ENERGY        2e-ENERGY     RMS[dD(SAO)]   TOL
 101  -2635.8947091381    -21250.629708     9755.4194213    0.813D-05 0.219D-14
                            Exc = -357.710901682     Coul =  10113.1303230    
                              N = 403.99934418    
                            current damping = 0.600
 
          Norm of current diis error: 0.15191E-07
          max. resid. norm for Fia-block=  5.145D-08 for orbital    131a         
          max. resid. fock norm         =  2.162D-05 for orbital    635a         

 ITERATION  ENERGY          1e-ENERGY        2e-ENERGY     RMS[dD(SAO)]   TOL
 102  -2635.8947091089    -21250.629708     9755.4194213    0.822D-05 0.213D-14
                            Exc = -357.710901681     Coul =  10113.1303230    
                              N = 403.99934418    
                            current damping = 0.650
 
          Norm of current diis error: 0.11062E-07
          max. resid. norm for Fia-block=  1.350D-07 for orbital    198a         
          max. resid. fock norm         =  4.919D-05 for orbital    759a         

 ITERATION  ENERGY          1e-ENERGY        2e-ENERGY     RMS[dD(SAO)]   TOL
 103  -2635.8947091205    -21250.629708     9755.4194214    0.263D-04 0.208D-14
                            Exc = -357.710901681     Coul =  10113.1303231    
                              N = 403.99934418    
                            current damping = 0.700
 
          Norm of current diis error: 0.17726E-07
          max. resid. norm for Fia-block=  1.476D-07 for orbital    131a         
          max. resid. fock norm         =  5.465D-05 for orbital    635a         

 ITERATION  ENERGY          1e-ENERGY        2e-ENERGY     RMS[dD(SAO)]   TOL
 104  -2635.8947091229    -21250.629708     9755.4194214    0.284D-04 0.204D-14
                            Exc = -357.710901681     Coul =  10113.1303231    
                              N = 403.99934418    
                            current damping = 0.550
 
          Norm of current diis error: 0.17715E-07
          max. resid. norm for Fia-block=  6.634D-08 for orbital    189a         
          max. resid. fock norm         =  2.245D-05 for orbital    754a         

 ITERATION  ENERGY          1e-ENERGY        2e-ENERGY     RMS[dD(SAO)]   TOL
 105  -2635.8947091032    -21250.629708     9755.4194214    0.123D-04 0.200D-14
                            Exc = -357.710901681     Coul =  10113.1303231    
                              N = 403.99934418    
                            current damping = 0.600
 
          Norm of current diis error: 0.17480E-07
          max. resid. norm for Fia-block=  5.368D-08 for orbital    189a         
          max. resid. fock norm         =  1.593D-05 for orbital    882a         
          mo-orthogonalization: Cholesky decomposition

 ITERATION  ENERGY          1e-ENERGY        2e-ENERGY     RMS[dD(SAO)]   TOL
 106  -2635.8947091038    -21250.629708     9755.4194214    0.655D-05 0.807D-14
                            Exc = -357.710901680     Coul =  10113.1303231    
                              N = 403.99934418    
                            current damping = 0.650
 
          Norm of current diis error: 0.12857E-07
          max. resid. norm for Fia-block=  1.814D-07 for orbital    187a         
          max. resid. fock norm         =  5.590D-05 for orbital    599a         

 ITERATION  ENERGY          1e-ENERGY        2e-ENERGY     RMS[dD(SAO)]   TOL
 107  -2635.8947091035    -21250.629708     9755.4194214    0.363D-04 0.512D-14
                            Exc = -357.710901681     Coul =  10113.1303230    
                              N = 403.99934418    
                            current damping = 0.500
 
          Norm of current diis error: 0.15033E-07
          max. resid. norm for Fia-block=  1.222D-07 for orbital    198a         
          max. resid. fock norm         =  3.941D-05 for orbital    685a         

 ITERATION  ENERGY          1e-ENERGY        2e-ENERGY     RMS[dD(SAO)]   TOL
 108  -2635.8947091395    -21250.629708     9755.4194214    0.260D-04 0.369D-14
                            Exc = -357.710901680     Coul =  10113.1303231    
                              N = 403.99934418    
[...]
          RI-JK Method:                                     
              A fully direct RI-HF algorithm: Implementation,
              optimised auxiliary basis sets, demonstration of
              accuracy and efficiency                         
              F. Weigend                                      
              Phys. Chem. Chem. Phys. 4: 4285 (2002)           
          Two-component HF and DFT with spin-orbit coupling:  
              Self-consistent treatment of spin-orbit         
              interactions with efficient Hartree-Fock and    
              density functional methods                      
              M. K. Armbruster, F. Weigend, C. van Wüllen and 
              W. Klopper                                      
              Phys. Chem. Chem. Phys. 10: 1748 (2008)         
          Relativistic all-electron 2c calculations           
              An efficient implementation of two-component    
              relativistic exact-decoupling methods for large 
              molecules                                       
              D. Peng, N. Middendorf, F. Weigend, M. Reiher   
              J. Chem. Phys. 138, 184105 (2013)               
                                         


 


              +--------------------------------------------------+
              |      general information about current run       |
              +--------------------------------------------------+

 

 DENSITY CONVERGENCE CHECK SWITCHED ON !
 SCF CONVERGENCE IF RMS(delta[D]) <     0.1000000000E-06

 PBE functional
 exchange:    LDA + PBE
 correlation: LDA (PW) + PBE
 A DFT calculation using the RI-J approximation will be carried out.
 Allocatable memory for RI due to $ricore (MB):        3000


              +--------------------------------------------------+
              | Atomic coordinate, charge and isotop information |
              +--------------------------------------------------+

                    atomic coordinates            atom    charge  isotop
         -1.38965263    4.39032136    1.13156966    c      6.000     0
          1.38965263   -4.39032136    1.13156966    c      6.000     0
         -0.19405862   -1.46264217  -10.20895352    c      6.000     0
          0.19405862    1.46264217  -10.20895352    c      6.000     0
         -1.03142613    7.33857758    0.96781809    c      6.000     0
          1.03142613   -7.33857758    0.96781809    c      6.000     0
          0.99073919   -2.62284104  -12.58205912    c      6.000     0
         -0.99073919    2.62284104  -12.58205912    c      6.000     0
         -3.14236228   -3.15720287   -5.78872346    c      6.000     0
          3.14236228    3.15720287   -5.78872346    c      6.000     0
         -0.14546696   -1.44219703  -14.97393405    c      6.000     0
          0.14546696    1.44219703  -14.97393405    c      6.000     0
          3.57666405    3.31980492    9.49921386    c      6.000     0
         -3.57666405   -3.31980492    9.49921386    c      6.000     0
          8.34360821   -2.69027006    7.54322033    c      6.000     0
         -8.34360821    2.69027006    7.54322033    c      6.000     0
         -3.18026697    3.38605834    5.02071977    c      6.000     0
          3.18026697   -3.38605834    5.02071977    c      6.000     0
         -4.14514923    3.79878190    0.93358873    c      6.000     0
          4.14514923   -3.79878190    0.93358873    c      6.000     0
          0.87816726   -3.55509472    3.81634591    c      6.000     0
         -0.87816726    3.55509472    3.81634591    c      6.000     0
         -1.15708952    3.24937709    9.04412472    c      6.000     0
          1.15708952   -3.24937709    9.04412472    c      6.000     0
          1.12621517   -3.27175920   -3.48897382    c      6.000     0
         -1.12621517    3.27175920   -3.48897382    c      6.000     0
          1.36529992    3.47831231    5.24731967    c      6.000     0
         -1.36529992   -3.47831231    5.24731967    c      6.000     0
         -0.12937216   -3.34389023   -1.06556824    c      6.000     0
          0.12937216    3.34389023   -1.06556824    c      6.000     0
          3.49338307   -3.19533112    7.64504652    c      6.000     0
         -3.49338307    3.19533112    7.64504652    c      6.000     0
         -0.89241693    2.52009890   -7.91670079    n      7.000     0
          0.89241693   -2.52009890   -7.91670079    n      7.000     0
          1.23429125    3.34634556    7.89010885    c      6.000     0
         -1.23429125   -3.34634556    7.89010885    c      6.000     0
          0.31247926    2.92778388   -5.73403158    c      6.000     0
         -0.31247926   -2.92778388   -5.73403158    c      6.000     0
          3.91465839   -3.31188035   -3.58718761    c      6.000     0
         -3.91465839    3.31188035   -3.58718761    c      6.000     0
          5.37163573   -3.45380748   -1.25964027    c      6.000     0
         -5.37163573    3.45380748   -1.25964027    c      6.000     0
         -5.88633949    2.95520116    8.96937169    c      6.000     0
          5.88633949   -2.95520116    8.96937169    c      6.000     0
          5.19364639   -3.57691898    3.28595213    o      8.000     0
         -5.19364639    3.57691898    3.28595213    o      8.000     0
          1.21750349   -3.15220152   11.57112811    o      8.000     0
         -1.21750349    3.15220152   11.57112811    o      8.000     0
         -3.64352559   -3.55545244    4.10544245    o      8.000     0
          3.64352559    3.55545244    4.10544245    o      8.000     0
         -5.95191601    2.92370604   11.33732515    o      8.000     0
          5.95191601   -2.92370604   11.33732515    o      8.000     0
          5.10680119   -3.05154790   -5.63973406    o      8.000     0
         -5.10680119    3.05154790   -5.63973406    o      8.000     0
         -2.38509327   -2.75436220   -0.68348394    o      8.000     0
          2.38509327    2.75436220   -0.68348394    o      8.000     0
         -3.08311181    3.06893811   12.02861702    h      1.000     0
          3.08311181   -3.06893811   12.02861702    h      1.000     0
         -2.85736947    2.56305691   -7.68603571    h      1.000     0
          2.85736947   -2.56305691   -7.68603571    h      1.000     0
          3.36139458    3.28226267    2.24385604    h      1.000     0
         -3.36139458   -3.28226267    2.24385604    h      1.000     0
         -2.23085704   -1.81457985  -10.21860359    h      1.000     0
          2.23085704    1.81457985  -10.21860359    h      1.000     0
          7.38405460   -3.09609536   -1.38071144    h      1.000     0
         -7.38405460    3.09609536   -1.38071144    h      1.000     0
         -3.04187874    2.30423662  -12.53715696    h      1.000     0
          3.04187874   -2.30423662  -12.53715696    h      1.000     0
          0.69391008   -4.67078752  -12.55460820    h      1.000     0
         -0.69391008    4.67078752  -12.55460820    h      1.000     0
         -2.16110384   -1.92893115  -15.08206286    h      1.000     0
          2.16110384    1.92893115  -15.08206286    h      1.000     0
         -3.78639701   -4.39141022   -4.27657066    h      1.000     0
          3.78639701    4.39141022   -4.27657066    h      1.000     0
          0.75642921   -2.25465568  -16.65025115    h      1.000     0
         -0.75642921    2.25465568  -16.65025115    h      1.000     0
         -4.06632176   -1.33067428   -5.50483425    h      1.000     0
          4.06632176    1.33067428   -5.50483425    h      1.000     0
         -5.23509016   -2.90973416    8.34546293    h      1.000     0
          5.23509016    2.90973416    8.34546293    h      1.000     0
         -3.74644820   -3.91912363   -7.61169219    h      1.000     0
          3.74644820    3.91912363   -7.61169219    h      1.000     0
         -3.41246197   -1.91689718   11.00470859    h      1.000     0
          3.41246197    1.91689718   11.00470859    h      1.000     0
          9.85055122   -2.35009441    8.90789191    h      1.000     0
         -9.85055122    2.35009441    8.90789191    h      1.000     0
          2.19149914   -8.24252827    2.41705757    h      1.000     0
         -2.19149914    8.24252827    2.41705757    h      1.000     0
         -8.23891606    1.13557290    6.18386662    h      1.000     0
          8.23891606   -1.13557290    6.18386662    h      1.000     0
         -0.95462482   -7.78998062    1.31327174    h      1.000     0
          0.95462482    7.78998062    1.31327174    h      1.000     0
         -1.59173730    8.02525039   -0.89864627    h      1.000     0
          1.59173730   -8.02525039   -0.89864627    h      1.000     0
          8.74979426   -4.40783439    6.46344253    h      1.000     0
         -8.74979426    4.40783439    6.46344253    h      1.000     0
          3.86326181    5.15816225   10.41369316    h      1.000     0
         -3.86326181   -5.15816225   10.41369316    h      1.000     0
 
       center of nuclear mass  :    0.00000000    0.00000000    0.92794586
       center of nuclear charge:    0.00000000    0.00000000    0.81897567

              +--------------------------------------------------+
              |               basis set information              |
              +--------------------------------------------------+

              we will work with the 1s 3p 5d 7f 9g ... basis set
              ...i.e. with spherical basis functions...

   type   atoms  prim   cont   basis
   ---------------------------------------------------------------------------
    c       42     66     46   aug-cc-pVTZ   [5s4p3d2f|19s6p3d2f]
    n        2     66     46   aug-cc-pVTZ   [5s4p3d2f|19s6p3d2f]
    o       12     66     46   aug-cc-pVTZ   [5s4p3d2f|19s6p3d2f]
    h       42     25     23   aug-cc-pVTZ   [4s3p2d|6s3p2d]
   ---------------------------------------------------------------------------
   total:   98   4746   3542
   ---------------------------------------------------------------------------

   total number of primitive shells          :  101
   total number of contracted shells         : 1162
   total number of cartesian basis functions : 4130
   total number of SCF-basis functions       : 3542


 integral neglect threshold       :  0.10E-27
 integral storage threshold THIZE :  0.10E-04
 integral storage threshold THIME :         5

 RI-J AUXILIARY BASIS SET information:

              we will work with the 1s 3p 5d 7f 9g ... basis set
              ...i.e. with spherical basis functions...

   type   atoms  prim   cont   basis
   ---------------------------------------------------------------------------
    c       42     70     49   aug-cc-pVTZ   [6s4p3d1f1g|12s5p4d2f1g]
    n        2     70     49   aug-cc-pVTZ   [6s4p3d1f1g|12s5p4d2f1g]
    o       12     70     49   aug-cc-pVTZ   [6s4p3d1f1g|12s5p4d2f1g]
    h       42     16     11   aug-cc-pVTZ   [3s1p1d|5s2p1d]
   ---------------------------------------------------------------------------
   total:   98   4592   3206
   ---------------------------------------------------------------------------

   total number of primitive shells          :   80
   total number of contracted shells         : 1050
   total number of cartesian basis functions : 3920
   total number of SCF-basis functions       : 3206


 symmetry group of the molecule :   c1 

 the group has the following generators :
   c1(z)

    1 symmetry operations found

 there are 1 real representations :   a   

 maximum number of shells which are related by symmetry :  1


    mo occupation :
   irrep   mo's   occupied
    a     3542      202
 
 number of basis functions   :         3542
 number of occupied orbitals :          202
 
  
           ------------------
           density functional
           ------------------
 PBE functional
 exchange:    LDA + PBE
 correlation: LDA (PW) + PBE
 iterations will be done with small grid
  
 spherical integration : Lebedev's spherical grid
 spherical gridsize    :           5
    i.e. gridpoints    :         590
 value for diffuse not defined
 radial integration    : Chebyshev 2nd kind (scaling 3)
 radial gridsize       :           8
 integration cells     :          98
 partition function    : becke
 partition sharpness   :           3
  

 biggest AO integral is expected to be     4.866064444
  
           ------------------------
               RI-J - INFORMATION
           ------------------------
 Contributions to RI integral batches: 
  neglected integral batches:      236085
  direct contribution:             396217
  memory contribution:       43401
 Memory core needed for (P|Q) and Cholesky     79 MByte
 Memory core minimum needed except of (P|Q)     8 MByte
 Total minimum memory core needed (sum)        86 MByte
  
 ****************************************
 Memory allocated for RI-J  2973 MByte
 ****************************************
                                            

          ------------------------
          nuclear repulsion energy  :   8859.31557760    
          ------------------------

 
          -----------------
          -S,T+V- integrals
          -----------------

 1e-integrals will be neglected if expon. factor < 0.100259E-28
 
   Difference densities algorithm switched on.
   The maximal number of linear combinations of
   difference densities is          20 .

 DIIS switched on: error vector is FDS-SDF
 Max. Iterations for DIIS is     :   4
 DIIS matrix (see manual) 
    Scaling factor of diagonals  :  1.200
    threshold for scaling factor :  0.000

 scf convergence criterion : increment of total energy < .1000000D-06
                  and increment of one-electron energy < .1000000D-03


 <geterg> : there is no data group $energy 


   ----> a dscf RESTART run will be tried ! <----

 $restart flag 'dscf' will be switched off !

  MOs are in ASCII format !


 automatic virtual orbital shift switched on 
      shift if e(lumo)-e(homo) < 0.10000000    


 reading orbital data $scfmo  from file mos
 orbital characterization : scfdump=400

 DSCF restart information will be dumped onto file mos


 complete restart information read in from $restartd
 iterations from earlier run will be continued
no density matrices from previous iterations found
  expected :            1  found :            0

 Starting SCF iterations

          Overall gridpoints after grid construction =        465018

 ITERATION  ENERGY          1e-ENERGY        2e-ENERGY     RMS[dD(SAO)]   TOL
 401  -2635.8947091060    -21250.629708     9755.4194215    0.000D+00 0.100D-27
                            Exc = -357.710901680     Coul =  10113.1303232    
                              N = 403.99934418    
                            current damping = 4.400
 
          max. resid. norm for Fia-block=  2.031D-06 for orbital    189a         
          max. resid. fock norm         =  6.898D-04 for orbital    759a         

 ITERATION  ENERGY          1e-ENERGY        2e-ENERGY     RMS[dD(SAO)]   TOL
 402  -2635.8947091099    -21250.629708     9755.4194215    0.856D-04 0.634D-28
                            Exc = -357.710901680     Coul =  10113.1303232    
                              N = 403.99934418    
                            current damping = 4.250
 
          Norm of current diis error: 0.77276E-07
          max. resid. norm for Fia-block=  1.656D-06 for orbital    189a         
          max. resid. fock norm         =  5.633D-04 for orbital    759a         

 ITERATION  ENERGY          1e-ENERGY        2e-ENERGY     RMS[dD(SAO)]   TOL
 403  -2635.8947091151    -21250.629708     9755.4194215    0.718D-04 0.438D-28
                            Exc = -357.710901681     Coul =  10113.1303231    
                              N = 403.99934418    
                            current damping = 4.100
 
          Norm of current diis error: 0.62353E-07
          max. resid. norm for Fia-block=  1.338D-06 for orbital    189a         
          max. resid. fock norm         =  4.568D-04 for orbital    759a         

 ENERGY & DENSITY CONVERGED !

          Overall gridpoints after grid construction =       1471228

 ITERATION  ENERGY          1e-ENERGY        2e-ENERGY     RMS[dD(SAO)]   TOL
 404  -2635.8948092306    -21250.629708     9755.4193213    0.598D-04 0.344D-28
                            Exc = -357.711001798     Coul =  10113.1303231    
                              N = 404.00012852    
                            current damping = 3.950
 
          Norm of current diis error: 0.51200E-07
          max. resid. norm for Fia-block=  1.076D-06 for orbital    189a         
          max. resid. fock norm         =  3.679D-04 for orbital    759a         

 End of SCF iterations

   convergence criteria satisfied after  404 iterations


                  ------------------------------------------ 
                 |  total energy      =  -2635.89480923061  |
                  ------------------------------------------ 
                 :  kinetic energy    =   2621.06557271671  :
                 :  potential energy  =  -5256.96038194732  :
                 :  virial theorem    =      1.99437411673  :
                 :  wavefunction norm =      1.00000000000  :
                  .......................................... 


 <geterg> : there is no data group $energy 


 <skperg> : $end is missing 


 orbitals $scfmo  will be written to file mos

    irrep                198a        199a        200a        201a        202a   
 eigenvalues H         -0.21588    -0.20383    -0.20196    -0.19301    -0.18258
            eV          -5.8744     -5.5467     -5.4957     -5.2522     -4.9684
 occupation              2.0000      2.0000      2.0000      2.0000      2.0000 

    irrep                203a        204a        205a        206a        207a   
 eigenvalues H         -0.10371    -0.10138    -0.09523    -0.09461    -0.08039
            eV          -2.8221     -2.7588     -2.5914     -2.5744     -2.1875
 
 
 
 
 ==============================================================================
                           electrostatic moments
 ==============================================================================

 reference point for electrostatic moments:    0.00000   0.00000   0.00000

 
              nuc           elec       ->  total
 ------------------------------------------------------------------------------
                          charge      
 ------------------------------------------------------------------------------
         404.000000    -404.000000       0.000000
 
 ------------------------------------------------------------------------------
                       dipole moment  
 ------------------------------------------------------------------------------
   x       0.000000      -0.000000      -0.000000
   y       0.000000      -0.000000      -0.000000
   z     330.866170    -336.370438      -5.504268
 
   | dipole moment | =     5.5043 a.u. =    13.9905 debye 
 
 ------------------------------------------------------------------------------
                     quadrupole moment
 ------------------------------------------------------------------------------
  xx    5316.367665   -5567.505191    -251.137527
  yy    4887.730659   -5124.587640    -236.856981
  zz   22427.779167  -22678.632292    -250.853125
  xy   -1942.603680    1945.889547       3.285867
  xz       0.000000      -0.000000      -0.000000
  yz       0.000000       0.000000       0.000000
 
     1/3  trace=    -246.282544
     anisotropy=      15.242842
 
 ==============================================================================
 


    ------------------------------------------------------------------------
         total  cpu-time :  4 hours 53 minutes and 10 seconds
         total wall-time :  4 hours 53 minutes and 33 seconds
    ------------------------------------------------------------------------

   ****  ridft : all done  ****


    2016-05-23 14:21:27.574 

