
   OpenMP run-time library returned nthreads = 28
 operating system is UNIX !

 dscf (c-15-33) : TURBOMOLE V7.3 ( 22142 ) 4 Jul 2018 at 18:12:42
 Copyright (C) 2018 TURBOMOLE GmbH, Karlsruhe


    2019-04-01 23:53:22.933 



                             d s c f - program

                   idea & directorship : reinhart ahlrichs
                   program development : marco haeser
                                         michael baer
                           dft version : oliver treutler


                          quantum chemistry group
                          universitaet  karlsruhe
                                  germany




                          References             
                                                 
          TURBOMOLE:                             
              R. Ahlrichs, M. Baer, M. Haeser, H. Horn, and
              C. Koelmel
              Electronic structure calculations on workstation
              computers: the program system TURBOMOLE
              Chem. Phys. Lett. 162: 165 (1989)
          Density Functional:                              
              O. Treutler and R. Ahlrichs                      
              Efficient Molecular Numerical Integration Schemes
              J. Chem. Phys. 102: 346 (1995)                   
          Parallel Version:                                
              Performance of parallel TURBOMOLE for Density    
              Functional Calculations                          
              M. v. Arnim and R. Ahlrichs                      
              J. Comp. Chem. 19: 1746 (1998)                   
                                         




              +--------------------------------------------------+
              | Atomic coordinate, charge and isotop information |
              +--------------------------------------------------+

                    atomic coordinates            atom    charge  isotop
          1.14665739    2.51413293    0.59797456    c      6.000     0
          2.35554071    4.16167648    0.62427540    h      1.000     0
          2.11287380    0.16487645    1.29468260    c      6.000     0
          4.06301990   -0.00734496    1.87793091    h      1.000     0
          0.55350511   -1.95792138    1.26442949    c      6.000     0
          1.30107051   -3.78126921    1.80540272    h      1.000     0
         -1.97066638   -1.73233297    0.54459949    c      6.000     0
         -3.17986023   -3.37975298    0.52789316    h      1.000     0
         -2.93585656    0.61859994   -0.15107070    c      6.000     0
         -4.89294495    0.79423126   -0.71308097    h      1.000     0
         -1.37579931    2.74169623   -0.12632505    c      6.000     0
         -2.12334124    4.56493328   -0.66870120    h      1.000     0
 
       center of nuclear mass  :   -0.41164094    0.39155270    0.57109482
       center of nuclear charge:   -0.41171979    0.39159003    0.57141577

              +--------------------------------------------------+
              |               basis set information              |
              +--------------------------------------------------+

              we will work with the 1s 3p 5d 7f 9g ... basis set
              ...i.e. with spherical basis functions...

   type   atoms  prim   cont   basis
   ---------------------------------------------------------------------------
    c        6     50     30   cc-pVTZ   [4s3p2d1f|18s5p2d1f]
    h        6     16     14   cc-pVTZ   [3s2p1d|5s2p1d]
   ---------------------------------------------------------------------------
   total:   12    396    264
   ---------------------------------------------------------------------------

   total number of primitive shells          :   34
   total number of contracted shells         :   96
   total number of cartesian basis functions :  300
   total number of SCF-basis functions       :  264


 integral neglect threshold       :  0.11E-12
 integral storage threshold THIZE :  0.10E-04
 integral storage threshold THIME :         5


 DENSITY CONVERGENCE CHECK SWITCHED ON !
 SCF CONVERGENCE IF RMS(delta[D]) <     0.1000000000E-06


 symmetry group of the molecule :   c1 

 the group has the following generators :
   c1(z)

    1 symmetry operations found

 there are 1 real representations :   a   

 maximum number of shells which are related by symmetry :  1


    mo occupation :
   irrep   mo's   occupied
    a      264       21
 
 number of basis functions   :                    264
 number of occupied orbitals :                     21
 

 automatic virtual orbital shift switched on 
      shift if e(lumo)-e(homo) < 0.10000000    


          ------------------------
          nuclear repulsion energy  :   203.660956826    
          ------------------------


         -----------------
         -S,T+V- integrals
         -----------------

 1e-integrals will be neglected if expon. factor < 0.111399E-13
 
   Difference densities algorithm switched on.
   The maximal number of linear combinations of
   difference densities is                    20 .

 DIIS switched on: error vector is FDS-SDF
 Max. Iterations for DIIS is     :   5
 DIIS matrix (see manual) 
    Scaling factor of diagonals  :  1.200
    threshold for scaling factor :  0.000

 scf convergence criterion : increment of total energy < .1000000D-08
                  and increment of one-electron energy < .1000000D-05

  MOs are in ASCII format !


 reading orbital data $scfmo  from file mos
 orbital characterization : scfconv=9

 DSCF restart information will be dumped onto file mos

 
                                              current damping :  0.700
 ITERATION  ENERGY          1e-ENERGY        2e-ENERGY     RMS[dD(SAO)]   TOL
   1  -230.73079307870    -714.73955043     280.34780052    0.000D+00 0.111D-12
          max. resid. norm for Fia-block=  9.409D-02 for orbital      6a         
          max. resid. fock norm         =  1.605D-01 for orbital    264a         
          Delta Eig. =    20.8288119885 eV 
 
                                              current damping :  0.650
 ITERATION  ENERGY          1e-ENERGY        2e-ENERGY     RMS[dD(SAO)]   TOL
   2  -230.76966993093    -713.86036050     279.42973374    0.118D-02 0.708D-13
          Norm of current diis error: 0.41744    
          max. resid. norm for Fia-block=  4.557D-02 for orbital      6a         
          max. resid. fock norm         =  5.495D-02 for orbital    264a         
          Delta Eig. =     9.7691991157 eV 
 
                                              current damping :  0.600
 ITERATION  ENERGY          1e-ENERGY        2e-ENERGY     RMS[dD(SAO)]   TOL
   3  -230.77748131844    -713.96540819     279.52697004    0.582D-03 0.536D-13
          Norm of current diis error: 0.18613    
          max. resid. norm for Fia-block=  1.879D-02 for orbital      6a         
          max. resid. fock norm         =  2.319D-02 for orbital    264a         
          Delta Eig. =     3.7381613182 eV 
 
                                              current damping :  0.650
 ITERATION  ENERGY          1e-ENERGY        2e-ENERGY     RMS[dD(SAO)]   TOL
   4  -230.77911523694    -713.88137117     279.44129910    0.262D-03 0.470D-13
          Norm of current diis error: 0.75021E-01
          max. resid. norm for Fia-block=  7.040D-03 for orbital      6a         
          max. resid. fock norm         =  8.512D-03 for orbital    264a         
          Delta Eig. =     1.3731185216 eV 
 
                                              current damping :  0.500
 ITERATION  ENERGY          1e-ENERGY        2e-ENERGY     RMS[dD(SAO)]   TOL
   5  -230.77937916093    -713.86737828     279.42704229    0.104D-03 0.434D-13
          Norm of current diis error: 0.31526E-01
          max. resid. norm for Fia-block=  2.727D-03 for orbital      6a         
          max. resid. fock norm         =  3.393D-03 for orbital    264a         
 mo-orthogonalization: Cholesky decomposition
          Delta Eig. =     0.5882376988 eV 
 
                                              current damping :  0.350
 ITERATION  ENERGY          1e-ENERGY        2e-ENERGY     RMS[dD(SAO)]   TOL
   6  -230.77942918246    -713.85925210     279.41886609    0.484D-04 0.402D-13
          Norm of current diis error: 0.11418E-01
          max. resid. norm for Fia-block=  1.001D-03 for orbital     14a         
          max. resid. fock norm         =  1.141D-03 for orbital    264a         
          Delta Eig. =     0.2159463018 eV 
 
                                              current damping :  0.200
 ITERATION  ENERGY          1e-ENERGY        2e-ENERGY     RMS[dD(SAO)]   TOL
   7  -230.77943630455    -713.85582404     279.41543091    0.198D-04 0.373D-13
          Norm of current diis error: 0.33532E-02
          max. resid. norm for Fia-block=  3.056D-04 for orbital     14a         
          max. resid. fock norm         =  3.056D-04 for orbital     14a         
          Delta Eig. =     0.0635539884 eV 
 
                                              current damping :  0.050
 ITERATION  ENERGY          1e-ENERGY        2e-ENERGY     RMS[dD(SAO)]   TOL
   8  -230.77943698645    -713.85510977     279.41471596    0.680D-05 0.343D-13
          Norm of current diis error: 0.71981E-03
          max. resid. norm for Fia-block=  6.595D-05 for orbital     14a         
          max. resid. fock norm         =  6.595D-05 for orbital     14a         
          Delta Eig. =     0.0116069161 eV 
 
                                              current damping :  0.050
 ITERATION  ENERGY          1e-ENERGY        2e-ENERGY     RMS[dD(SAO)]   TOL
   9  -230.77943702459    -713.85474872     279.41435487    0.184D-05 0.320D-13
          Norm of current diis error: 0.10890E-03
          max. resid. norm for Fia-block=  1.073D-05 for orbital     14a         
          max. resid. fock norm         =  1.073D-05 for orbital     14a         
          Delta Eig. =     0.0006724323 eV 
 
                                              current damping :  0.100
 ITERATION  ENERGY          1e-ENERGY        2e-ENERGY     RMS[dD(SAO)]   TOL
  10  -230.77943702569    -713.85480644     279.41441259    0.336D-06 0.308D-13
          Norm of current diis error: 0.27723E-04
          max. resid. norm for Fia-block=  3.484D-06 for orbital     17a         
          max. resid. fock norm         =  3.486D-06 for orbital     17a         
 mo-orthogonalization: Cholesky decomposition
          Delta Eig. =     0.0000857761 eV 

 DENSITY CONVERGED !

 
                                              current damping :  0.150
 ITERATION  ENERGY          1e-ENERGY        2e-ENERGY     RMS[dD(SAO)]   TOL
  11  -230.77943702577    -713.85476109     279.41436723    0.806D-07 0.301D-13
          Norm of current diis error: 0.10688E-04
          max. resid. norm for Fia-block=  7.620D-07 for orbital     17a         
          max. resid. fock norm         =  7.817D-07 for orbital     18a         
          Delta Eig. =     0.0000318674 eV 

 DENSITY CONVERGED !

 
                                              current damping :  0.200
 ITERATION  ENERGY          1e-ENERGY        2e-ENERGY     RMS[dD(SAO)]   TOL
  12  -230.77943702578    -713.85477716     279.41438331    0.221D-07 0.296D-13
          Norm of current diis error: 0.32129E-05
          max. resid. norm for Fia-block=  3.765D-07 for orbital     21a         
          max. resid. fock norm         =  3.765D-07 for orbital     21a         
          Delta Eig. =     0.0000048966 eV 

 ENERGY & DENSITY CONVERGED !

 
                                              current damping :  0.250
 ITERATION  ENERGY          1e-ENERGY        2e-ENERGY     RMS[dD(SAO)]   TOL
  13  -230.77943702578    -713.85477521     279.41438136    0.637D-08 0.317D-13
          max. resid. norm for Fia-block=  1.359D-07 for orbital     20a         
          max. resid. fock norm         =  1.359D-07 for orbital     20a         

 convergence criteria satisfied after    13 iterations


                  ------------------------------------------ 
                 |  total energy      =   -230.77943702578  |
                  ------------------------------------------ 
                 :  kinetic energy    =    230.45254765219  :
                 :  potential energy  =   -461.23198467798  :
                 :  virial theorem    =      1.99858354203  :
                 :  wavefunction norm =      1.00000000000  :
                  .......................................... 


 orbitals $scfmo  will be written to file mos

    irrep                 17a         18a         19a         20a         21a   
 eigenvalues H         -0.50068    -0.49334    -0.49298    -0.33521    -0.33515
            eV         -13.6244    -13.4246    -13.4148     -9.1217     -9.1199
 occupation              2.0000      2.0000      2.0000      2.0000      2.0000 

    irrep                 22a         23a         24a         25a         26a   
 eigenvalues H          0.12848     0.12858     0.14611     0.16997     0.17000
            eV           3.4963      3.4989      3.9760      4.6252      4.6260
 
 
 
 
 ==============================================================================
                           electrostatic moments
 ==============================================================================

 reference point for electrostatic moments:    0.00000   0.00000   0.00000

 
              nuc           elec       ->  total
 ------------------------------------------------------------------------------
                          charge      
 ------------------------------------------------------------------------------
          42.000000     -42.000000      -0.000000
 
 ------------------------------------------------------------------------------
                       dipole moment  
 ------------------------------------------------------------------------------
   x     -17.292231      17.291268      -0.000963
   y      16.446781     -16.446222       0.000559
   z      23.999462     -23.995235       0.004228
 
   | dipole moment | =     0.0044 a.u. =     0.0111 debye 
 
 ------------------------------------------------------------------------------
                     quadrupole moment
 ------------------------------------------------------------------------------
  xx     185.196668    -209.251636     -24.054969
  yy     191.002029    -214.833464     -23.831435
  zz      32.217705     -61.761216     -29.543511
  xy       1.860751      -1.559022       0.301729
  xz      36.670675     -35.047845       1.622830
  yz     -22.497720      21.397065      -1.100655
 
     1/3  trace=     -25.809972
     anisotropy=       6.573364
 
 ==============================================================================
 


    ------------------------------------------------------------------------
         total  cpu-time : 10 minutes and 18 seconds
         total wall-time :  47.98 seconds
    ------------------------------------------------------------------------

   ****  dscf : all done  ****


    2019-04-01 23:54:10.848 

