
   OpenMP run-time library returned nthreads = 28

 ricc2 (c-15-34) : TURBOMOLE V7.3 ( 22142 ) 4 Jul 2018 at 18:12:42
 Copyright (C) 2018 TURBOMOLE GmbH, Karlsruhe


    2019-04-02 00:05:50.651 



                              R I C C 2 - PROGRAM

                          the quantum chemistry groups
                             at the universities in
                           Karlsruhe, Bochum & Mainz
                                   Germany



   *-----------------------------------------------------------------------*
   |                     program will use 28 thread(s)                     |
   *-----------------------------------------------------------------------*


              +--------------------------------------------------+
              | Atomic coordinate, charge and isotop information |
              +--------------------------------------------------+

                    atomic coordinates            atom    charge  isotop
          0.77248205    1.98614944    0.70966030    c      0.000     0
          1.91228710    3.68221773    0.69556639    h      0.000     0
          1.92594818   -0.37750988    0.54623182    c      0.000     0
          3.96005585   -0.51369054    0.41043148    h      0.000     0
          0.45678958   -2.56413670    0.56066275    c      0.000     0
          1.35156300   -4.39661546    0.43099395    h      0.000     0
         -2.16596575   -2.38910056    0.74436686    c      0.000     0
         -3.30547468   -4.08544926    0.75477513    h      0.000     0
         -3.32077379   -0.02638101    0.91264651    c      0.000     0
         -5.35456503    0.11006460    1.05643094    h      0.000     0
         -1.85133828    2.16223698    0.89248686    c      0.000     0
         -2.74775896    3.99488270    1.01503972    h      0.000     0
          0.46415789    3.69773596    8.04387518    c      6.000     0
         -0.21263826    4.01092187    6.12902935    h      1.000     0
          2.40034022    4.37181935    8.19777733    h      1.000     0
         -0.67741976    4.78175058    9.36357056    h      1.000     0
          0.39452841    0.95165565    8.82945101    c      6.000     0
          0.93239815    0.28578908   10.98097614    o      8.000     0
         -0.30919666   -0.68431190    6.97895353    n      7.000     0
         -0.61368427   -0.00780744    5.22893799    h      1.000     0
         -0.37872512   -3.38072287    7.39107835    c      6.000     0
         -0.23116099   -3.69613240    9.41307819    h      1.000     0
         -2.14607360   -4.17129089    6.69804375    h      1.000     0
          1.18809685   -4.33290440    6.45124681    h      1.000     0
 
       center of nuclear mass  :   -0.25395911   -0.03007042    4.45483514
       center of nuclear charge:    0.19705090    0.15161246    8.34421488

              +--------------------------------------------------+
              |               basis set information              |
              +--------------------------------------------------+

              we will work with the 1s 3p 5d 7f 9g ... basis set
              ...i.e. with spherical basis functions...

   type   atoms  prim   cont   basis
   ---------------------------------------------------------------------------
    c        9     77     55   cc-pVQZ   [5s4p3d2f1g|21s6p3d2f1g]
    h       13     32     30   cc-pVQZ   [4s3p2d1f|6s3p2d1f]
    o        1     77     55   cc-pVQZ   [5s4p3d2f1g|21s6p3d2f1g]
    n        1     77     55   cc-pVQZ   [5s4p3d2f1g|21s6p3d2f1g]
   ---------------------------------------------------------------------------
   total:   24   1263    995
   ---------------------------------------------------------------------------

   total number of primitive shells          :  111
   total number of contracted shells         :  295
   total number of cartesian basis functions : 1225
   total number of SCF-basis functions       :  995


 symmetry group of the molecule :   c1 

 the group has the following generators :
   c1(z)

    1 symmetry operations found

 there are 1 real representations :   a   


   =========================================================================


     restricted closed shell calculation for the wavefunction models:
               MP2        - Second Order Moeller Plesset PT


     global parameters for ricc2 program:

        hard restart (reuse of interm.) :  disabled
        soft restart (reuse of vectors) :  disabled
        threshold for vector function   :    0.100000E-05
        convergence threshold energy    :    0.100000E-06
        linear dependence threshold     :    0.100000E-13
        global print level              :      1
        maximum number of iterations    :   300
        maximum number DIIS vectors     :    10
        max. dim. of reduced space      :   100
        core memory limit (MB)          : *****


     MP2 energy only: Energy will be calculated directly from T2 amplitudes!

     Scratch Directory : 


   =========================================================================

    der. integral neglect threshold  :  0.10E-07
    integral neglect threshold       :  0.27E-11
    integral storage threshold THIZE :  0.10E-04
    integral storage threshold THIME :         5


                  +------------------------------------------+
                  |     Auxiliary basis set information      |
                  +------------------------------------------+

              we will work with the 1s 3p 5d 7f 9g ... basis set
              ...i.e. with spherical basis functions...

   type   atoms  prim   cont   basis
   ---------------------------------------------------------------------------
    c        9    132    132   cc-pVQZ   [8s7p6d5f3g1h|8s7p6d5f3g1h]
    h       13     55     55   cc-pVQZ   [5s4p3d2f1g|5s4p3d2f1g]
    o        1    132    132   cc-pVQZ   [8s7p6d5f3g1h|8s7p6d5f3g1h]
    n        1    132    132   cc-pVQZ   [8s7p6d5f3g1h|8s7p6d5f3g1h]
   ---------------------------------------------------------------------------
   total:   24   2167   2167
   ---------------------------------------------------------------------------

   total number of primitive shells          :  105
   total number of contracted shells         :  525
   total number of cartesian basis functions : 2901
   total number of SCF-basis functions       : 2167


 maximum number of shells which are related by symmetry :  1


 The symmetry information takes   1 MB

*---------------------------------------------------------------------*
|               simplified C1 algorithm will be applied               |
*---------------------------------------------------------------------*
  MOs are in ASCII format !


 reading orbital data $scfmo  from file mos
 orbital characterization : scfconv=9



              +--------------------------------------------+
              | list of orbitals that will be kept frozen: |
              +--------------------------------------------+
              |   irrep   index      energy     occ/vir    |
              +--------------------------------------------+
              |   a         1      -20.5067     occupied   |
              |   a         2      -15.5844     occupied   |
              |   a         3      -11.3454     occupied   |
              |   a         4      -11.2547     occupied   |
              |   a         5      -11.2333     occupied   |
              +--------------------------------------------+



   Molecular Orbital Statistic:
   ============================

   -----------------------------
   orbitals in total:
   -----------------------------
    frozen occupied :      5
    active occupied :     15
    active virtual  :    975
    frozen virtual  :      0
    all together    :    995
   -----------------------------


     time in riccmos       cpu: 11.85 sec    wall:  1.25 sec    ratio:  9.5

     total memory allocated for calculation of (Q|P)**(-1/2) : 54 MiB


     calculation of (P|Q) ...
     time in lp2sym        cpu:  5.56 sec    wall:  0.20 sec    ratio: 27.8


     calculation of the Cholesky decomposition of (P|Q)**(-1) ...
     time in invmetri      cpu: 26.15 sec    wall:  1.09 sec    ratio: 24.1

   threshold for RMS(d[D]) in SCF was     :  0.10E-06
   integral neglect threshold             :  0.27E-11
   derivative integral neglect threshold  :  0.10E-07


   =========================================================================

     Energy of reference wave function is  -247.1172712317000
     Maximum orbital residual is           0.1412415890878E-05


     Number of symmetry-nonredundant auxiliary basis functions:     2167

     Block lengths for integral files:
        frozen occupied (BOI):        1 MiB
        active occupied (BJI):        1 MiB
        active virtual  (BAI):       17 MiB
        frozen virtual  (BGI):        0 MiB
               general  (BTI):       17 MiB

   =========================================================================




   **************************************************************************
   *                                                                        *
   *          OPTIMIZATION OF THE GROUND STATE CLUSTER AMPLITUDES           *
   *                                                                        *
   **************************************************************************


   Iter.   MP2 energy       Norm(Omega)   Norm(t1)  Norm(t2)     cpu    wall
   ...........................................................................
    1   -248.1331419071     ------          0.00000   0.32002    7.99    0.29
   ...........................................................................


     time in total         cpu:  8 min  0 s  wall:  0 min 18 s  ratio: 27.4


     **********************************************************************
     *                                                                    *
     *   RHF  energy                             :   -247.1172712317      *
     *   MP2 correlation energy (doubles)        :     -1.0158706754      *
     *                                                                    *
     *   Final MP2 energy                        :   -248.1331419071      *
     *                                                                    *
     *    E(S)   =     -0.6586824994      E(T)   =     -0.3571881759      *
     *    E(OS)  =     -0.7777452247      E(SS)  =     -0.2381254506      *
     *                                                                    *
     *   SCS-MP2 energy                          :   -248.1299406516      *
     *   (computed with  C(OS) =   1.2000  and  C(SS) =   0.3333)         *
     *                                                                    *
     *   SOS-MP2 energy                          :   -248.1283400239      *
     *   (computed with  C(OS) =   1.3000)                                *
     *                                                                    *
     *   Norm of MP1 T2 amplitudes               :      0.3200210804      *
     *                                                                    *
     **********************************************************************



    ------------------------------------------------------------------------
         total  cpu-time : 11 minutes and 19 seconds
         total wall-time :  26.98 seconds
    ------------------------------------------------------------------------

   ****  ricc2 : all done  ****


    2019-04-02 00:06:17.551 

