
   OpenMP run-time library returned nthreads = 28

 ricc2 (c-15-42) : TURBOMOLE V7.3 ( 22142 ) 4 Jul 2018 at 18:12:42
 Copyright (C) 2018 TURBOMOLE GmbH, Karlsruhe


    2019-04-01 23:43:54.533 



                              R I C C 2 - PROGRAM

                          the quantum chemistry groups
                             at the universities in
                           Karlsruhe, Bochum & Mainz
                                   Germany



   *-----------------------------------------------------------------------*
   |                     program will use 28 thread(s)                     |
   *-----------------------------------------------------------------------*


              +--------------------------------------------------+
              | Atomic coordinate, charge and isotop information |
              +--------------------------------------------------+

                    atomic coordinates            atom    charge  isotop
          0.46415789    3.69773596    8.04387518    c      6.000     0
         -0.21263826    4.01092187    6.12902935    h      1.000     0
          2.40034022    4.37181935    8.19777733    h      1.000     0
         -0.67741976    4.78175058    9.36357056    h      1.000     0
          0.39452841    0.95165565    8.82945101    c      6.000     0
          0.93239815    0.28578908   10.98097614    o      8.000     0
         -0.30919666   -0.68431190    6.97895353    n      7.000     0
         -0.61368427   -0.00780744    5.22893799    h      1.000     0
         -0.37872512   -3.38072287    7.39107835    c      6.000     0
         -0.23116099   -3.69613240    9.41307819    h      1.000     0
         -2.14607360   -4.17129089    6.69804375    h      1.000     0
          1.18809685   -4.33290440    6.45124681    h      1.000     0
 
       center of nuclear mass  :    0.21967201    0.15308297    8.43797339
       center of nuclear charge:    0.19705090    0.15161246    8.34421488

              +--------------------------------------------------+
              |               basis set information              |
              +--------------------------------------------------+

              we will work with the 1s 3p 5d 7f 9g ... basis set
              ...i.e. with spherical basis functions...

   type   atoms  prim   cont   basis
   ---------------------------------------------------------------------------
    c        3     50     30   cc-pVTZ   [4s3p2d1f|18s5p2d1f]
    h        7     16     14   cc-pVTZ   [3s2p1d|5s2p1d]
    o        1     50     30   cc-pVTZ   [4s3p2d1f|18s5p2d1f]
    n        1     50     30   cc-pVTZ   [4s3p2d1f|18s5p2d1f]
   ---------------------------------------------------------------------------
   total:   12    362    248
   ---------------------------------------------------------------------------

   total number of primitive shells          :   86
   total number of contracted shells         :   92
   total number of cartesian basis functions :  280
   total number of SCF-basis functions       :  248


 symmetry group of the molecule :   c1 

 the group has the following generators :
   c1(z)

    1 symmetry operations found

 there are 1 real representations :   a   


   =========================================================================


     restricted closed shell calculation for the wavefunction models:
               MP2        - Second Order Moeller Plesset PT


     global parameters for ricc2 program:

        hard restart (reuse of interm.) :  disabled
        soft restart (reuse of vectors) :  disabled
        threshold for vector function   :    0.100000E-05
        convergence threshold energy    :    0.100000E-06
        linear dependence threshold     :    0.100000E-13
        global print level              :      1
        maximum number of iterations    :   300
        maximum number DIIS vectors     :    10
        max. dim. of reduced space      :   100
        core memory limit (MB)          : *****


     MP2 energy only: Energy will be calculated directly from T2 amplitudes!

     Scratch Directory : 


   =========================================================================

    der. integral neglect threshold  :  0.10E-07
    integral neglect threshold       :  0.12E-10
    integral storage threshold THIZE :  0.10E-04
    integral storage threshold THIME :         5


                  +------------------------------------------+
                  |     Auxiliary basis set information      |
                  +------------------------------------------+

              we will work with the 1s 3p 5d 7f 9g ... basis set
              ...i.e. with spherical basis functions...

   type   atoms  prim   cont   basis
   ---------------------------------------------------------------------------
    c        3     81     81   cc-pVTZ   [8s6p5d3f1g|8s6p5d3f1g]
    h        7     30     30   cc-pVTZ   [4s3p2d1f|4s3p2d1f]
    o        1     81     81   cc-pVTZ   [8s6p5d3f1g|8s6p5d3f1g]
    n        1     81     81   cc-pVTZ   [8s6p5d3f1g|8s6p5d3f1g]
   ---------------------------------------------------------------------------
   total:   12    615    615
   ---------------------------------------------------------------------------

   total number of primitive shells          :   79
   total number of contracted shells         :  185
   total number of cartesian basis functions :  750
   total number of SCF-basis functions       :  615


 maximum number of shells which are related by symmetry :  1


 The symmetry information takes   1 MB

*---------------------------------------------------------------------*
|               simplified C1 algorithm will be applied               |
*---------------------------------------------------------------------*
  MOs are in ASCII format !


 reading orbital data $scfmo  from file mos
 orbital characterization : scfconv=9



              +--------------------------------------------+
              | list of orbitals that will be kept frozen: |
              +--------------------------------------------+
              |   irrep   index      energy     occ/vir    |
              +--------------------------------------------+
              |   a         1      -20.5057     occupied   |
              |   a         2      -15.5835     occupied   |
              |   a         3      -11.3444     occupied   |
              |   a         4      -11.2546     occupied   |
              |   a         5      -11.2335     occupied   |
              +--------------------------------------------+



   Molecular Orbital Statistic:
   ============================

   -----------------------------
   orbitals in total:
   -----------------------------
    frozen occupied :      5
    active occupied :     15
    active virtual  :    228
    frozen virtual  :      0
    all together    :    248
   -----------------------------


     time in riccmos       cpu:  2.14 sec    wall:  0.10 sec    ratio: 21.4

     total memory allocated for calculation of (Q|P)**(-1/2) : 5 MiB


     calculation of (P|Q) ...
     time in lp2sym        cpu:  1.13 sec    wall:  0.04 sec    ratio: 25.8


     calculation of the Cholesky decomposition of (P|Q)**(-1) ...
     time in invmetri      cpu:  1.58 sec    wall:  0.06 sec    ratio: 27.7

   threshold for RMS(d[D]) in SCF was     :  0.10E-06
   integral neglect threshold             :  0.12E-10
   derivative integral neglect threshold  :  0.10E-07


   =========================================================================

     Energy of reference wave function is  -247.0991250509000
     Maximum orbital residual is           0.7298428930611E-06


     Number of symmetry-nonredundant auxiliary basis functions:      615

     Block lengths for integral files:
        frozen occupied (BOI):        1 MiB
        active occupied (BJI):        1 MiB
        active virtual  (BAI):        2 MiB
        frozen virtual  (BGI):        0 MiB
               general  (BTI):        2 MiB

   =========================================================================




   **************************************************************************
   *                                                                        *
   *          OPTIMIZATION OF THE GROUND STATE CLUSTER AMPLITUDES           *
   *                                                                        *
   **************************************************************************


   Iter.   MP2 energy       Norm(Omega)   Norm(t1)  Norm(t2)     cpu    wall
   ...........................................................................
    1   -248.0495242964     ------          0.00000   0.31236    0.10    0.00
   ...........................................................................


     time in total         cpu:  5.88 sec    wall:  0.25 sec    ratio: 23.9


     **********************************************************************
     *                                                                    *
     *   RHF  energy                             :   -247.0991250509      *
     *   MP2 correlation energy (doubles)        :     -0.9503992455      *
     *                                                                    *
     *   Final MP2 energy                        :   -248.0495242964      *
     *                                                                    *
     *    E(S)   =     -0.6065048215      E(T)   =     -0.3438944240      *
     *    E(OS)  =     -0.7211362962      E(SS)  =     -0.2292629493      *
     *                                                                    *
     *   SCS-MP2 energy                          :   -248.0409095894      *
     *   (computed with  C(OS) =   1.2000  and  C(SS) =   0.3333)         *
     *                                                                    *
     *   SOS-MP2 energy                          :   -248.0366022359      *
     *   (computed with  C(OS) =   1.3000)                                *
     *                                                                    *
     *   Norm of MP1 T2 amplitudes               :      0.3123563418      *
     *                                                                    *
     **********************************************************************



    ------------------------------------------------------------------------
         total  cpu-time :  26.11 seconds
         total wall-time :   1.09 seconds
    ------------------------------------------------------------------------

   ****  ricc2 : all done  ****


    2019-04-01 23:43:55.583 

