           Doing BLAS/Lapack in the master proc. with  8 CPUs.
           SMPCPUS    set: Shared-memory Parallelization with   8 CPUs.

           SMP Parallelization Reference:
           C. van Wullen, J. Comput. Chem. 32 (2011) 1195--1201
 operating system is UNIX !

 ridft (c-18-312.gp.local) : TURBOMOLE V7.2 ( 21454 ) 4 Oct 2017 at 12:48:15
 Copyright (C) 2017 TURBOMOLE GmbH, Karlsruhe


    2018-04-24 21:16:29.937 



                                  r i d f t

                        DFT program with RI approximation 
                                for coulomb part 




                                                 
                                 References:     
                                                 
          TURBOMOLE:                             
              R. Ahlrichs, M. Baer, M. Haeser, H. Horn, and
              C. Koelmel
              Electronic structure calculations on workstation
              computers: the program system TURBOMOLE
              Chem. Phys. Lett. 162: 165 (1989)
          Density Functional:                              
              O. Treutler and R. Ahlrichs                      
              Efficient Molecular Numerical Integration Schemes
              J. Chem. Phys. 102: 346 (1995)                   
          Parallel Version:                                
              Performance of parallel TURBOMOLE for Density    
              Functional Calculations                          
              M. v. Arnim and R. Ahlrichs                      
              J. Comp. Chem. 19: 1746 (1998)                   
          RI-J Method:                                     
              Auxiliary Basis Sets to approximate Coulomb      
              Potentials                                       
              Chem. Phys. Lett. 240: 283 (1995)                
              K. Eichkorn, O. Treutler, H. Oehm, M. Haeser     
              and R. Ahlrichs                                  
              Chem. Phys. Lett. 242: 652 (1995)                
                                                           
              Auxiliary Basis Sets for Main Row Atoms and their
              Use to approximate Coulomb Potentials            
              K. Eichkorn, F. Weigend, O. Treutler and         
              R. Ahlrichs                                      
              Theo. Chem. Acc. 97: 119 (1997)                   
                                                           
              Accurate Coulomb-fitting basis sets for H to Rn 
              F. Weigend                                        
              Phys. Chem. Chem. Phys. 8: 1057 (2006)            
                                                           
          Multipole accelerated RI-J (MARI-J):             
              Fast evaluation of the Coulomb potential for     
              electron densities using multipole accelerated   
              resolution of identity approximation             
              M. Sierka, A. Hogekamp and R. Ahlrichs           
              J. Chem. Phys. 118: 9136 (2003)                  
          RI-JK Method:                                     
              A fully direct RI-HF algorithm: Implementation,
              optimised auxiliary basis sets, demonstration of
              accuracy and efficiency                         
              F. Weigend                                      
              Phys. Chem. Chem. Phys. 4: 4285 (2002)           
          Two-component HF and DFT with spin-orbit coupling:  
              Self-consistent treatment of spin-orbit         
              interactions with efficient Hartree-Fock and    
              density functional methods                      
              M. K. Armbruster, F. Weigend, C. van Wüllen and 
              W. Klopper                                      
              Phys. Chem. Chem. Phys. 10: 1748 (2008)         
          Relativistic all-electron 2c calculations           
              An efficient implementation of two-component    
              relativistic exact-decoupling methods for large 
              molecules                                       
              D. Peng, N. Middendorf, F. Weigend, M. Reiher   
              J. Chem. Phys. 138, 184105 (2013)               
                                         




              +--------------------------------------------------+
              |      general information about current run       |
              +--------------------------------------------------+

 

 DENSITY CONVERGENCE CHECK SWITCHED ON !
 SCF CONVERGENCE IF RMS(delta[D]) <     0.1000000000E-06

 TPSS meta-GGA functional
 exchange:    LDA + TPSS
 correlation: LDA (PW) + TPSS
 A DFT calculation using the RI-J approximation will be carried out.
 Allocatable memory for RI due to $ricore (MB):                   500


              +--------------------------------------------------+
              | Atomic coordinate, charge and isotop information |
              +--------------------------------------------------+

                    atomic coordinates            atom    charge  isotop
         -2.32951643    2.28966581   -0.26763069    c      6.000     0
         -1.07955646    4.23679572    0.04840871    o      8.000     0
         -1.26721351    0.00734873   -0.59390591    n      7.000     0
          0.64977656   -0.17113380   -0.58265296    h      1.000     0
         -2.35122321   -1.52373097   -0.84410799    h      1.000     0
         -5.17453305    2.39382506   -0.29458293    c      6.000     0
         -5.81653043    3.11163270    1.52028768    h      1.000     0
         -6.05112046    0.57233283   -0.65424419    h      1.000     0
         -5.76364103    3.73313601   -1.73589745    h      1.000     0
          7.92780344    2.11163411   -0.22590150    n      7.000     0
          8.85382489    0.45631493   -0.44877291    h      1.000     0
          9.44643651    4.27129806    0.05846769    c      6.000     0
         11.74351584    4.09059805    0.02977262    o      8.000     0
          7.98644889    6.56791337    0.36676505    c      6.000     0
          8.97243805    8.33139231    0.59926774    h      1.000     0
          5.43690463    6.45136351    0.35603754    c      6.000     0
          4.26451088    8.10744464    0.57841465    h      1.000     0
          4.14228707    4.23607251    0.06395057    n      7.000     0
          2.19059592    4.21894958    0.06236827    h      1.000     0
          5.33449633    1.95995503   -0.24267646    c      6.000     0
          4.20597318   -0.05055477   -0.51065378    o      8.000     0
 
       center of nuclear mass  :    3.75587701    3.13141367   -0.11280522
       center of nuclear charge:    3.59699613    3.12378403   -0.11553148

              +--------------------------------------------------+
              |               basis set information              |
              +--------------------------------------------------+

              we will work with the 1s 3p 5d 7f 9g ... basis set
              ...i.e. with spherical basis functions...

   type   atoms  prim   cont   basis
   ---------------------------------------------------------------------------
    c        6     50     30   cc-pVTZ   [4s3p2d1f|18s5p2d1f]
    o        3     50     30   cc-pVTZ   [4s3p2d1f|18s5p2d1f]
    n        3     50     30   cc-pVTZ   [4s3p2d1f|18s5p2d1f]
    h        9     16     14   cc-pVTZ   [3s2p1d|5s2p1d]
   ---------------------------------------------------------------------------
   total:   21    744    486
   ---------------------------------------------------------------------------

   total number of primitive shells          :   86
   total number of contracted shells         :  174
   total number of cartesian basis functions :  555
   total number of SCF-basis functions       :  486


 integral neglect threshold       :  0.60E-13
 integral storage threshold THIZE :  0.10E-04
 integral storage threshold THIME :         5

 RI-J AUXILIARY BASIS SET information:

              we will work with the 1s 3p 5d 7f 9g ... basis set
              ...i.e. with spherical basis functions...

   type   atoms  prim   cont   basis
   ---------------------------------------------------------------------------
    c        6     70     49   cc-pVTZ   [6s4p3d1f1g|12s5p4d2f1g]
    o        3     70     49   cc-pVTZ   [6s4p3d1f1g|12s5p4d2f1g]
    n        3     70     49   cc-pVTZ   [6s4p3d1f1g|12s5p4d2f1g]
    h        9     16     11   cc-pVTZ   [3s1p1d|5s2p1d]
   ---------------------------------------------------------------------------
   total:   21    984    687
   ---------------------------------------------------------------------------

   total number of primitive shells          :   80
   total number of contracted shells         :  225
   total number of cartesian basis functions :  840
   total number of SCF-basis functions       :  687


 symmetry group of the molecule :   c1 

 the group has the following generators :
   c1(z)

    1 symmetry operations found

 there are 1 real representations :   a   

 maximum number of shells which are related by symmetry :  1


    mo occupation :
   irrep   mo's   occupied
    a      486       45
 
 number of basis functions   :                    486
 number of occupied orbitals :                     45
 
  
           ------------------
           density functional
           ------------------
 TPSS meta-GGA functional
 exchange:    LDA + TPSS
 correlation: LDA (PW) + TPSS

 iterations will be done with small grid
  
 spherical integration : Lebedev's spherical grid
 spherical gridsize    :                     5
    i.e. gridpoints    :                   590
 value for diffuse not defined
 radial integration    : Chebyshev 2nd kind (scaling 3)
 radial gridsize       :                     8
 integration cells     :                    21
 partition function    : becke
 partition sharpness   :                     3
  

 biggest AO integral is expected to be     4.866064444
  
           ------------------------
               RI-J - INFORMATION
           ------------------------
 Contributions to RI integral batches: 
  neglected integral batches:                  4039
  direct contribution:                         1604
  memory contribution:                  9582
 Memory core needed for (P|Q) and Cholesky      4 MByte
 Memory core minimum needed except of (P|Q)     1 MByte
 Total minimum memory core needed (sum)         5 MByte
  
 ****************************************
 Memory allocated for RI-J   498 MByte
 ****************************************
                                            

          ------------------------
          nuclear repulsion energy  :   682.464506840    
          ------------------------


         -----------------
         -S,T+V- integrals
         -----------------

 1e-integrals will be neglected if expon. factor < 0.602155E-14
 Difference densities >>NOT<< switched on in parallel ridft!

 DIIS switched on: error vector is FDS-SDF
 Max. Iterations for DIIS is     :   4
 DIIS matrix (see manual) 
    Scaling factor of diagonals  :  1.200
    threshold for scaling factor :  0.000

 scf convergence criterion : increment of total energy < .1000000D-08
                  and increment of one-electron energy < .1000000D-05

  MOs are in ASCII format !


 automatic virtual orbital shift switched on 
      shift if e(lumo)-e(homo) < 0.10000000    


 reading orbital data $scfmo  from file mos
 orbital characterization : expanded
 mo provided and orthogonalized by Cholesky decomposition

 DSCF restart information will be dumped onto file mos


 Starting SCF iterations

          Overall gridpoints after grid construction =        105386

 ITERATION  ENERGY          1e-ENERGY        2e-ENERGY     RMS[dD(SAO)]   TOL
   1  -621.64629209801    -2190.8310053     886.72020640    0.000D+00 0.601D-13
                            Exc = -82.2984002376     Coul =  969.018606639    
                              N = 90.000040058    
                            current damping = 0.700
 
          max. resid. norm for Fia-block=  4.207D-01 for orbital     31a         
          max. resid. fock norm         =  4.623D+00 for orbital    463a         

 ITERATION  ENERGY          1e-ENERGY        2e-ENERGY     RMS[dD(SAO)]   TOL
   2  -623.95924185347    -2199.2486022     892.82485351    0.346D-02 0.601D-13
                            Exc = -82.2226449491     Coul =  975.047498464    
                              N = 90.000034628    
                            current damping = 0.650
 
          Norm of current diis error:  2.8538    
          max. resid. norm for Fia-block=  1.586D-01 for orbital      3a         
          max. resid. fock norm         =  3.614D-01 for orbital    482a         

 ITERATION  ENERGY          1e-ENERGY        2e-ENERGY     RMS[dD(SAO)]   TOL
   3  -624.27920394973    -2203.2262854     896.48257466    0.210D-02 0.601D-13
                            Exc = -82.6488423565     Coul =  979.131417014    
                              N = 90.000028892    
                            current damping = 0.550
 
          Norm of current diis error:  1.3430    
          max. resid. norm for Fia-block=  6.327D-02 for orbital      3a         
          max. resid. fock norm         =  8.049D-02 for orbital    476a         

 ITERATION  ENERGY          1e-ENERGY        2e-ENERGY     RMS[dD(SAO)]   TOL
   4  -624.36747124515    -2203.4342435     896.60226538    0.176D-02 0.601D-13
                            Exc = -82.5779116163     Coul =  979.180177001    
                              N = 90.000027714    
                            current damping = 0.400
 
          Norm of current diis error: 0.59410    
          max. resid. norm for Fia-block=  3.137D-02 for orbital     15a         
          max. resid. fock norm         =  6.275D-02 for orbital    456a         

 ITERATION  ENERGY          1e-ENERGY        2e-ENERGY     RMS[dD(SAO)]   TOL
   5  -624.38001519540    -2204.2451057     897.40058369    0.599D-03 0.601D-13
                            Exc = -82.7267859613     Coul =  980.127369656    
                              N = 90.000025594    
                            current damping = 0.300
 
          Norm of current diis error: 0.38603    
          max. resid. norm for Fia-block=  1.065D-02 for orbital     45a         
          max. resid. fock norm         =  1.410D-02 for orbital    480a         
          mo-orthogonalization: Cholesky decomposition

 ITERATION  ENERGY          1e-ENERGY        2e-ENERGY     RMS[dD(SAO)]   TOL
   6  -624.38706775211    -2204.5808296     897.72925496    0.499D-03 0.601D-13
                            Exc = -82.7186436828     Coul =  980.447898647    
                              N = 90.000025699    
                            current damping = 0.150
 
          Norm of current diis error: 0.10319    
          max. resid. norm for Fia-block=  4.056D-03 for orbital     38a         
          max. resid. fock norm         =  7.334D-03 for orbital    455a         

 ITERATION  ENERGY          1e-ENERGY        2e-ENERGY     RMS[dD(SAO)]   TOL
   7  -624.38710737436    -2204.2019742     897.35035996    0.141D-03 0.601D-13
                            Exc = -82.6951254284     Coul =  980.045485390    
                              N = 90.000026058    
                            current damping = 0.200
 
          Norm of current diis error: 0.98173E-01
          max. resid. norm for Fia-block=  3.002D-03 for orbital     43a         
          max. resid. fock norm         =  5.285D-03 for orbital    463a         

 ITERATION  ENERGY          1e-ENERGY        2e-ENERGY     RMS[dD(SAO)]   TOL
   8  -624.38751248591    -2204.3654067     897.51338740    0.905D-04 0.601D-13
                            Exc = -82.7053671728     Coul =  980.218754570    
                              N = 90.000025849    
                            current damping = 0.250
 
          Norm of current diis error: 0.31655E-01
          max. resid. norm for Fia-block=  1.315D-03 for orbital     44a         
          max. resid. fock norm         =  1.927D-03 for orbital    467a         

 ITERATION  ENERGY          1e-ENERGY        2e-ENERGY     RMS[dD(SAO)]   TOL
   9  -624.38753864567    -2204.4232519     897.57120643    0.450D-04 0.601D-13
                            Exc = -82.7148225903     Coul =  980.286029016    
                              N = 90.000025733    
                            current damping = 0.100
 
          Norm of current diis error: 0.20786E-01
          max. resid. norm for Fia-block=  6.950D-04 for orbital     44a         
          max. resid. fock norm         =  9.990D-04 for orbital    482a         

 ITERATION  ENERGY          1e-ENERGY        2e-ENERGY     RMS[dD(SAO)]   TOL
  10  -624.38755469518    -2204.4093781     897.55731659    0.254D-04 0.601D-13
                            Exc = -82.7095765743     Coul =  980.266893162    
                              N = 90.000025816    
                            current damping = 0.150
 
          Norm of current diis error: 0.10504E-01
          max. resid. norm for Fia-block=  2.327D-04 for orbital     40a         
          max. resid. fock norm         =  3.785D-04 for orbital    480a         
          mo-orthogonalization: Cholesky decomposition

 ITERATION  ENERGY          1e-ENERGY        2e-ENERGY     RMS[dD(SAO)]   TOL
  11  -624.38755937760    -2204.4007209     897.54865468    0.735D-05 0.601D-13
                            Exc = -82.7105038330     Coul =  980.259158513    
                              N = 90.000025800    
                            current damping = 0.050
 
          Norm of current diis error: 0.23538E-02
          max. resid. norm for Fia-block=  7.751D-05 for orbital     37a         
          max. resid. fock norm         =  1.109D-04 for orbital    477a         

 ITERATION  ENERGY          1e-ENERGY        2e-ENERGY     RMS[dD(SAO)]   TOL
  12  -624.38755949584    -2204.4045455     897.55247913    0.192D-05 0.601D-13
                            Exc = -82.7104025499     Coul =  980.262881685    
                              N = 90.000025791    
                            current damping = 0.100
 
          Norm of current diis error: 0.16236E-02
          max. resid. norm for Fia-block=  4.376D-05 for orbital     43a         
          max. resid. fock norm         =  7.021D-05 for orbital    461a         

 ITERATION  ENERGY          1e-ENERGY        2e-ENERGY     RMS[dD(SAO)]   TOL
  13  -624.38755958575    -2204.4039348     897.55186838    0.123D-05 0.601D-13
                            Exc = -82.7104717614     Coul =  980.262340141    
                              N = 90.000025800    
                            current damping = 0.150
 
          Norm of current diis error: 0.67885E-03
          max. resid. norm for Fia-block=  2.878D-05 for orbital     43a         
          max. resid. fock norm         =  4.153D-05 for orbital    479a         

 ITERATION  ENERGY          1e-ENERGY        2e-ENERGY     RMS[dD(SAO)]   TOL
  14  -624.38755959954    -2204.4037907     897.55172424    0.622D-06 0.601D-13
                            Exc = -82.7104762720     Coul =  980.262200517    
                              N = 90.000025797    
                            current damping = 0.050
 
          Norm of current diis error: 0.38673E-03
          max. resid. norm for Fia-block=  1.248D-05 for orbital     42a         
          max. resid. fock norm         =  1.796D-05 for orbital     42a         

 ITERATION  ENERGY          1e-ENERGY        2e-ENERGY     RMS[dD(SAO)]   TOL
  15  -624.38755960502    -2204.4034332     897.55136679    0.322D-06 0.601D-13
                            Exc = -82.7104524123     Coul =  980.261819206    
                              N = 90.000025797    
                            current damping = 0.050
 
          Norm of current diis error: 0.17993E-03
          max. resid. norm for Fia-block=  4.491D-06 for orbital     45a         
          max. resid. fock norm         =  7.859D-06 for orbital    481a         
          mo-orthogonalization: Cholesky decomposition

 ITERATION  ENERGY          1e-ENERGY        2e-ENERGY     RMS[dD(SAO)]   TOL
  16  -624.38755960618    -2204.4037106     897.55164420    0.138D-06 0.601D-13
                            Exc = -82.7104570979     Coul =  980.262101300    
                              N = 90.000025798    
                            current damping = 0.100
 
          Norm of current diis error: 0.76095E-04
          max. resid. norm for Fia-block=  2.824D-06 for orbital     45a         
          max. resid. fock norm         =  4.249D-06 for orbital    481a         

 DENSITY CONVERGED !


 ITERATION  ENERGY          1e-ENERGY        2e-ENERGY     RMS[dD(SAO)]   TOL
  17  -624.38755960629    -2204.4036248     897.55155836    0.928D-07 0.601D-13
                            Exc = -82.7104666929     Coul =  980.262025054    
                              N = 90.000025797    
                            current damping = 0.150
 
          Norm of current diis error: 0.55698E-04
          max. resid. norm for Fia-block=  1.687D-06 for orbital     45a         
          max. resid. fock norm         =  2.426D-06 for orbital    482a         

 DENSITY CONVERGED !


 ITERATION  ENERGY          1e-ENERGY        2e-ENERGY     RMS[dD(SAO)]   TOL
  18  -624.38755960643    -2204.4036408     897.55157432    0.572D-07 0.601D-13
                            Exc = -82.7104603452     Coul =  980.262034667    
                              N = 90.000025797    
                            current damping = 0.200
 
          Norm of current diis error: 0.16123E-04
          max. resid. norm for Fia-block=  5.245D-07 for orbital     45a         
          max. resid. fock norm         =  9.772D-07 for orbital    453a         

 ENERGY & DENSITY CONVERGED !

          Overall gridpoints after grid construction =        336479

 ITERATION  ENERGY          1e-ENERGY        2e-ENERGY     RMS[dD(SAO)]   TOL
  19  -624.38735086312    -2204.4036309     897.55177317    0.189D-07 0.601D-13
                            Exc = -82.7102509507     Coul =  980.262024121    
                              N = 89.999998458    
                            current damping = 0.250
 
          Norm of current diis error: 0.97354E-05
          max. resid. norm for Fia-block=  2.374D-07 for orbital     40a         
          max. resid. fock norm         =  4.204D-07 for orbital    453a         

 End of SCF iterations

   convergence criteria satisfied after    19 iterations


                  ------------------------------------------ 
                 |  total energy      =   -624.38735086312  |
                  ------------------------------------------ 
                 :  kinetic energy    =    621.26303280187  :
                 :  potential energy  =  -1245.65038366498  :
                 :  virial theorem    =      1.99499618617  :
                 :  wavefunction norm =      1.00000000000  :
                  .......................................... 


 <geterg> : there is no data group $energy 


 <skperg> : $end is missing 


 orbitals $scfmo  will be written to file mos

    irrep                 41a         42a         43a         44a         45a   
 eigenvalues H         -0.25297    -0.24941    -0.23537    -0.21872    -0.21758
            eV          -6.8836     -6.7868     -6.4048     -5.9516     -5.9208
 occupation              2.0000      2.0000      2.0000      2.0000      2.0000 

    irrep                 46a         47a         48a         49a         50a   
 eigenvalues H         -0.06383    -0.02349    -0.01653     0.01178     0.03823
            eV          -1.7370     -0.6392     -0.4497      0.3205      1.0402
 
 
 
 
 ==============================================================================
                           electrostatic moments
 ==============================================================================

 reference point for electrostatic moments:    0.00000   0.00000   0.00000

 
              nuc           elec       ->  total
 ------------------------------------------------------------------------------
                          charge      
 ------------------------------------------------------------------------------
          90.000000     -90.000000      -0.000000
 
 ------------------------------------------------------------------------------
                       dipole moment  
 ------------------------------------------------------------------------------
   x     323.729652    -325.848381      -2.118730
   y     281.140563    -281.454891      -0.314328
   z     -10.397833      10.326199      -0.071634
 
   | dipole moment | =     2.1431 a.u. =     5.4473 debye 
 
 ------------------------------------------------------------------------------
                     quadrupole moment
 ------------------------------------------------------------------------------
  xx    3576.351842   -3647.431591     -71.079749
  yy    1320.654852   -1369.143806     -48.488954
  zz      15.562489     -67.669970     -52.107481
  xy    1392.640171   -1396.491576      -3.851405
  xz      28.139532     -27.446042       0.693490
  yz      29.322100     -28.636899       0.685201
 
     1/3  trace=     -57.225395
     anisotropy=      22.114331
 
 ==============================================================================
 


    ------------------------------------------------------------------------
         total  cpu-time :  7 minutes and 24 seconds
         total wall-time :  56.80 seconds
    ------------------------------------------------------------------------

   ****  ridft : all done  ****


    2018-04-24 21:17:26.727 

