           Doing BLAS/Lapack in the master proc. with  8 CPUs.
           SMPCPUS    set: Shared-memory Parallelization with   8 CPUs.

           SMP Parallelization Reference:
           C. van Wullen, J. Comput. Chem. 32 (2011) 1195--1201
 operating system is UNIX !

 ridft (c-18-171.gp.local) : TURBOMOLE V7.2 ( 21454 ) 4 Oct 2017 at 12:48:15
 Copyright (C) 2017 TURBOMOLE GmbH, Karlsruhe


    2018-04-28 20:54:19.626 



                                  r i d f t

                        DFT program with RI approximation 
                                for coulomb part 




                                                 
                                 References:     
                                                 
          TURBOMOLE:                             
              R. Ahlrichs, M. Baer, M. Haeser, H. Horn, and
              C. Koelmel
              Electronic structure calculations on workstation
              computers: the program system TURBOMOLE
              Chem. Phys. Lett. 162: 165 (1989)
          Density Functional:                              
              O. Treutler and R. Ahlrichs                      
              Efficient Molecular Numerical Integration Schemes
              J. Chem. Phys. 102: 346 (1995)                   
          Parallel Version:                                
              Performance of parallel TURBOMOLE for Density    
              Functional Calculations                          
              M. v. Arnim and R. Ahlrichs                      
              J. Comp. Chem. 19: 1746 (1998)                   
          RI-J Method:                                     
              Auxiliary Basis Sets to approximate Coulomb      
              Potentials                                       
              Chem. Phys. Lett. 240: 283 (1995)                
              K. Eichkorn, O. Treutler, H. Oehm, M. Haeser     
              and R. Ahlrichs                                  
              Chem. Phys. Lett. 242: 652 (1995)                
                                                           
              Auxiliary Basis Sets for Main Row Atoms and their
              Use to approximate Coulomb Potentials            
              K. Eichkorn, F. Weigend, O. Treutler and         
              R. Ahlrichs                                      
              Theo. Chem. Acc. 97: 119 (1997)                   
                                                           
              Accurate Coulomb-fitting basis sets for H to Rn 
              F. Weigend                                        
              Phys. Chem. Chem. Phys. 8: 1057 (2006)            
                                                           
          Multipole accelerated RI-J (MARI-J):             
              Fast evaluation of the Coulomb potential for     
              electron densities using multipole accelerated   
              resolution of identity approximation             
              M. Sierka, A. Hogekamp and R. Ahlrichs           
              J. Chem. Phys. 118: 9136 (2003)                  
          RI-JK Method:                                     
              A fully direct RI-HF algorithm: Implementation,
              optimised auxiliary basis sets, demonstration of
              accuracy and efficiency                         
              F. Weigend                                      
              Phys. Chem. Chem. Phys. 4: 4285 (2002)           
          Two-component HF and DFT with spin-orbit coupling:  
              Self-consistent treatment of spin-orbit         
              interactions with efficient Hartree-Fock and    
              density functional methods                      
              M. K. Armbruster, F. Weigend, C. van Wüllen and 
              W. Klopper                                      
              Phys. Chem. Chem. Phys. 10: 1748 (2008)         
          Relativistic all-electron 2c calculations           
              An efficient implementation of two-component    
              relativistic exact-decoupling methods for large 
              molecules                                       
              D. Peng, N. Middendorf, F. Weigend, M. Reiher   
              J. Chem. Phys. 138, 184105 (2013)               
                                         




              +--------------------------------------------------+
              |      general information about current run       |
              +--------------------------------------------------+

 

 DENSITY CONVERGENCE CHECK SWITCHED ON !
 SCF CONVERGENCE IF RMS(delta[D]) <     0.1000000000E-06

 PBE functional
 exchange:    LDA + PBE
 correlation: LDA (PW) + PBE
 A DFT calculation using the RI-J approximation will be carried out.
 Allocatable memory for RI due to $ricore (MB):                  5000


              +--------------------------------------------------+
              | Atomic coordinate, charge and isotop information |
              +--------------------------------------------------+

                    atomic coordinates            atom    charge  isotop
         -1.20685731    0.88990297    0.08422222    n      7.000     0
          0.35896172   -0.21531003   -0.01091053    h      1.000     0
         -2.45753015    0.15355310   -1.15966536    h      1.000     0
         -2.26513690    0.73963612    2.63039786    c      6.000     0
         -3.95470126    1.90719611    2.74608859    h      1.000     0
         -2.76418842   -1.16377587    3.26819100    h      1.000     0
         -0.90758924    1.50927685    3.97047959    h      1.000     0
 
       center of nuclear mass  :   -1.73591551    0.75848779    1.34131668
       center of nuclear charge:   -1.76465944    0.71433765    1.39922922

              +--------------------------------------------------+
              |               basis set information              |
              +--------------------------------------------------+

              we will work with the 1s 3p 5d 7f 9g ... basis set
              ...i.e. with spherical basis functions...

   type   atoms  prim   cont   basis
   ---------------------------------------------------------------------------
    n        1     50     30   cc-pVTZ   [4s3p2d1f|18s5p2d1f]
    h        5     16     14   cc-pVTZ   [3s2p1d|5s2p1d]
    c        1     50     30   cc-pVTZ   [4s3p2d1f|18s5p2d1f]
   ---------------------------------------------------------------------------
   total:    7    180    130
   ---------------------------------------------------------------------------

   total number of primitive shells          :   60
   total number of contracted shells         :   50
   total number of cartesian basis functions :  145
   total number of SCF-basis functions       :  130


 integral neglect threshold       :  0.23E-12
 integral storage threshold THIZE :  0.10E-04
 integral storage threshold THIME :         5

 RI-J AUXILIARY BASIS SET information:

              we will work with the 1s 3p 5d 7f 9g ... basis set
              ...i.e. with spherical basis functions...

   type   atoms  prim   cont   basis
   ---------------------------------------------------------------------------
    n        1     70     49   cc-pVTZ   [6s4p3d1f1g|12s5p4d2f1g]
    h        5     16     11   cc-pVTZ   [3s1p1d|5s2p1d]
    c        1     70     49   cc-pVTZ   [6s4p3d1f1g|12s5p4d2f1g]
   ---------------------------------------------------------------------------
   total:    7    220    153
   ---------------------------------------------------------------------------

   total number of primitive shells          :   56
   total number of contracted shells         :   55
   total number of cartesian basis functions :  182
   total number of SCF-basis functions       :  153


 symmetry group of the molecule :   c1 

 the group has the following generators :
   c1(z)

    1 symmetry operations found

 there are 1 real representations :   a   

 maximum number of shells which are related by symmetry :  1


    mo occupation :
   irrep   mo's   occupied
    a      130        9
 
 number of basis functions   :                    130
 number of occupied orbitals :                      9
 
  
           ------------------
           density functional
           ------------------
 PBE functional
 exchange:    LDA + PBE
 correlation: LDA (PW) + PBE

 iterations will be done with small grid
  
 spherical integration : Lebedev's spherical grid
 spherical gridsize    :                     5
    i.e. gridpoints    :                   590
 value for diffuse not defined
 radial integration    : Chebyshev 2nd kind (scaling 3)
 radial gridsize       :                     8
 integration cells     :                     7
 partition function    : becke
 partition sharpness   :                     3
  

 biggest AO integral is expected to be     4.229423036
  
           ------------------------
               RI-J - INFORMATION
           ------------------------
 Contributions to RI integral batches: 
  neglected integral batches:                     0
  direct contribution:                            0
  memory contribution:                  1275
 Memory core needed for (P|Q) and Cholesky      1 MByte
 Memory core minimum needed except of (P|Q)     1 MByte
 Total minimum memory core needed (sum)         1 MByte
  
 ****************************************
 Memory allocated for RI-J    15 MByte
 ****************************************
                                            

          ------------------------
          nuclear repulsion energy  :   42.0921754793    
          ------------------------


         -----------------
         -S,T+V- integrals
         -----------------

 1e-integrals will be neglected if expon. factor < 0.230480E-13
 Difference densities >>NOT<< switched on in parallel ridft!

 DIIS switched on: error vector is FDS-SDF
 Max. Iterations for DIIS is     :   4
 DIIS matrix (see manual) 
    Scaling factor of diagonals  :  1.200
    threshold for scaling factor :  0.000

 scf convergence criterion : increment of total energy < .1000000D-08
                  and increment of one-electron energy < .1000000D-05

  MOs are in ASCII format !


 automatic virtual orbital shift switched on 
      shift if e(lumo)-e(homo) < 0.10000000    


 reading orbital data $scfmo  from file mos
 orbital characterization : expanded
 mo provided and orthogonalized by Cholesky decomposition

 DSCF restart information will be dumped onto file mos


 Starting SCF iterations

          Overall gridpoints after grid construction =         30683

 ITERATION  ENERGY          1e-ENERGY        2e-ENERGY     RMS[dD(SAO)]   TOL
   1  -95.387162376978    -210.16360712     72.684269262    0.000D+00 0.230D-12
                            Exc = -13.8263432631     Coul =  86.5106125255    
                              N = 17.999991532    
                            current damping = 0.700
 
          max. resid. norm for Fia-block=  2.578D-01 for orbital      1a         
          max. resid. fock norm         =  4.035D+00 for orbital    124a         

 ITERATION  ENERGY          1e-ENERGY        2e-ENERGY     RMS[dD(SAO)]   TOL
   2  -95.684111581744    -211.10839790     73.332110840    0.365D-02 0.230D-12
                            Exc = -13.9388602627     Coul =  87.2709711031    
                              N = 17.999990540    
                            current damping = 0.650
 
          Norm of current diis error:  1.1698    
          max. resid. norm for Fia-block=  1.195D-01 for orbital      1a         
          max. resid. fock norm         =  1.559D-01 for orbital    130a         

 ITERATION  ENERGY          1e-ENERGY        2e-ENERGY     RMS[dD(SAO)]   TOL
   3  -95.742109447238    -211.54699450     73.712709573    0.230D-02 0.230D-12
                            Exc = -14.0240995359     Coul =  87.7368091090    
                              N = 17.999990620    
                            current damping = 0.500
 
          Norm of current diis error: 0.55126    
          max. resid. norm for Fia-block=  4.923D-02 for orbital      1a         
          max. resid. fock norm         =  5.231D-02 for orbital      1a         

 ITERATION  ENERGY          1e-ENERGY        2e-ENERGY     RMS[dD(SAO)]   TOL
   4  -95.759715959832    -211.61528751     73.763396069    0.170D-02 0.230D-12
                            Exc = -14.0499326952     Coul =  87.8133287645    
                              N = 17.999990488    
                            current damping = 0.350
 
          Norm of current diis error: 0.19705    
          max. resid. norm for Fia-block=  1.805D-02 for orbital      4a         
          max. resid. fock norm         =  2.243D-02 for orbital      4a         

 ITERATION  ENERGY          1e-ENERGY        2e-ENERGY     RMS[dD(SAO)]   TOL
   5  -95.762273379875    -211.83665665     73.982207788    0.805D-03 0.230D-12
                            Exc = -14.0843854674     Coul =  88.0665932557    
                              N = 17.999990556    
                            current damping = 0.200
 
          Norm of current diis error: 0.79288E-01
          max. resid. norm for Fia-block=  8.477D-03 for orbital      9a         
          max. resid. fock norm         =  8.545D-03 for orbital      9a         
          mo-orthogonalization: Cholesky decomposition

 ITERATION  ENERGY          1e-ENERGY        2e-ENERGY     RMS[dD(SAO)]   TOL
   6  -95.762602423693    -211.70432940     73.849551501    0.464D-03 0.230D-12
                            Exc = -14.0725209346     Coul =  87.9220724356    
                              N = 17.999990376    
                            current damping = 0.250
 
          Norm of current diis error: 0.47226E-01
          max. resid. norm for Fia-block=  2.047D-03 for orbital      5a         
          max. resid. fock norm         =  2.757D-03 for orbital     71a         

 ITERATION  ENERGY          1e-ENERGY        2e-ENERGY     RMS[dD(SAO)]   TOL
   7  -95.762680565630    -211.77308681     73.918230763    0.723D-04 0.230D-12
                            Exc = -14.0802413365     Coul =  87.9984720991    
                              N = 17.999990428    
                            current damping = 0.300
 
          Norm of current diis error: 0.58131E-02
          max. resid. norm for Fia-block=  4.022D-04 for orbital      6a         
          max. resid. fock norm         =  6.219D-04 for orbital     62a         

 ITERATION  ENERGY          1e-ENERGY        2e-ENERGY     RMS[dD(SAO)]   TOL
   8  -95.762681349089    -211.76920057     73.914343743    0.165D-04 0.230D-12
                            Exc = -14.0800654962     Coul =  87.9944092392    
                              N = 17.999990426    
                            current damping = 0.350
 
          Norm of current diis error: 0.34249E-02
          max. resid. norm for Fia-block=  1.555D-04 for orbital      7a         
          max. resid. fock norm         =  1.744D-04 for orbital     18a         

 ITERATION  ENERGY          1e-ENERGY        2e-ENERGY     RMS[dD(SAO)]   TOL
   9  -95.762681777705    -211.77340319     73.918545933    0.535D-05 0.230D-12
                            Exc = -14.0804775113     Coul =  87.9990234445    
                              N = 17.999990427    
                            current damping = 0.400
 
          Norm of current diis error: 0.33851E-03
          max. resid. norm for Fia-block=  2.961D-05 for orbital      9a         
          max. resid. fock norm         =  3.539D-05 for orbital      9a         

 ITERATION  ENERGY          1e-ENERGY        2e-ENERGY     RMS[dD(SAO)]   TOL
  10  -95.762681782271    -211.77335242     73.918495156    0.975D-06 0.230D-12
                            Exc = -14.0804694268     Coul =  87.9989645825    
                              N = 17.999990427    
                            current damping = 0.450
 
          Norm of current diis error: 0.71982E-04
          max. resid. norm for Fia-block=  4.365D-06 for orbital      4a         
          max. resid. fock norm         =  5.612D-06 for orbital      7a         
          mo-orthogonalization: Cholesky decomposition

 ITERATION  ENERGY          1e-ENERGY        2e-ENERGY     RMS[dD(SAO)]   TOL
  11  -95.762681782501    -211.77342226     73.918564994    0.222D-06 0.230D-12
                            Exc = -14.0804764762     Coul =  87.9990414700    
                              N = 17.999990427    
                            current damping = 0.500
 
          Norm of current diis error: 0.16440E-04
          max. resid. norm for Fia-block=  1.570D-06 for orbital      3a         
          max. resid. fock norm         =  2.014D-06 for orbital    110a         

 DENSITY CONVERGED !


 ITERATION  ENERGY          1e-ENERGY        2e-ENERGY     RMS[dD(SAO)]   TOL
  12  -95.762681782512    -211.77344395     73.918586686    0.569D-07 0.230D-12
                            Exc = -14.0804791411     Coul =  87.9990658274    
                              N = 17.999990427    
                            current damping = 0.350
 
          Norm of current diis error: 0.77273E-05
          max. resid. norm for Fia-block=  7.931D-07 for orbital      9a         
          max. resid. fock norm         =  8.203D-07 for orbital      9a         

 DENSITY CONVERGED !


 ITERATION  ENERGY          1e-ENERGY        2e-ENERGY     RMS[dD(SAO)]   TOL
  13  -95.762681782516    -211.77343249     73.918575226    0.410D-07 0.230D-12
                            Exc = -14.0804779067     Coul =  87.9990531326    
                              N = 17.999990427    
                            current damping = 0.400
 
          Norm of current diis error: 0.34420E-05
          max. resid. norm for Fia-block=  1.803D-07 for orbital      5a         
          max. resid. fock norm         =  2.188D-07 for orbital    107a         

 ENERGY & DENSITY CONVERGED !

          Overall gridpoints after grid construction =        103922

 ITERATION  ENERGY          1e-ENERGY        2e-ENERGY     RMS[dD(SAO)]   TOL
  14  -95.762685160233    -211.77343614     73.918575502    0.631D-08 0.230D-12
                            Exc = -14.0804816697     Coul =  87.9990571717    
                              N = 18.000000200    
                            current damping = 0.450
 
          Norm of current diis error: 0.75372E-06
          max. resid. norm for Fia-block=  4.703D-08 for orbital      5a         
          max. resid. fock norm         =  6.149D-08 for orbital    110a         

 End of SCF iterations

   convergence criteria satisfied after    14 iterations


                  ------------------------------------------ 
                 |  total energy      =    -95.76268516023  |
                  ------------------------------------------ 
                 :  kinetic energy    =     95.18806983601  :
                 :  potential energy  =   -190.95075499625  :
                 :  virial theorem    =      1.99399959052  :
                 :  wavefunction norm =      1.00000000000  :
                  .......................................... 


 <geterg> : there is no data group $energy 


 <skperg> : $end is missing 


 orbitals $scfmo  will be written to file mos

    irrep                  5a          6a          7a          8a          9a   
 eigenvalues H         -0.43724    -0.39054    -0.35383    -0.32008    -0.19298
            eV         -11.8980    -10.6273     -9.6284     -8.7098     -5.2512
 occupation              2.0000      2.0000      2.0000      2.0000      2.0000 

    irrep                 10a         11a         12a         13a         14a   
 eigenvalues H          0.01684     0.05663     0.07597     0.09708     0.11178
            eV           0.4581      1.5409      2.0671      2.6417      3.0418
 
 
 
 
 ==============================================================================
                           electrostatic moments
 ==============================================================================

 reference point for electrostatic moments:    0.00000   0.00000   0.00000

 
              nuc           elec       ->  total
 ------------------------------------------------------------------------------
                          charge      
 ------------------------------------------------------------------------------
          18.000000     -18.000000       0.000000
 
 ------------------------------------------------------------------------------
                       dipole moment  
 ------------------------------------------------------------------------------
   x     -31.763870      31.676063      -0.087807
   y      12.858078     -13.348590      -0.490512
   z      25.186126     -25.124651       0.061475
 
   | dipole moment | =     0.5021 a.u. =     1.2762 debye 
 
 ------------------------------------------------------------------------------
                     quadrupole moment
 ------------------------------------------------------------------------------
  xx      71.253029     -80.700221      -9.447192
  yy      16.165486     -28.098467     -11.932982
  zz      76.895337     -87.003999     -10.108662
  xy     -23.720112      23.758699       0.038588
  xz     -57.112201      57.380253       0.268052
  yz      19.448590     -18.796242       0.652348
 
     1/3  trace=     -10.496279
     anisotropy=       2.543445
 
 ==============================================================================
 


    ------------------------------------------------------------------------
         total  cpu-time :  24.02 seconds
         total wall-time :   2.21 seconds
    ------------------------------------------------------------------------

   ****  ridft : all done  ****


    2018-04-28 20:54:21.821 

