 operating system is UNIX !
 hostname is         c-9-332.local

 ridft (c-9-332.local) : TURBOMOLE V7.0.2( ) 8 Jan 2016 at 10:54:38
 Copyright (C) 2016 TURBOMOLE GmbH, Karlsruhe


    2017-11-08 19:10:58.761 



                                  r i d f t

                        DFT program with RI approximation 
                                for coulomb part 




                                                 
                                 References:     
                                                 
          TURBOMOLE:                             
              R. Ahlrichs, M. Baer, M. Haeser, H. Horn, and
              C. Koelmel
              Electronic structure calculations on workstation
              computers: the program system TURBOMOLE
              Chem. Phys. Lett. 162: 165 (1989)
          Density Functional:                              
              O. Treutler and R. Ahlrichs                      
              Efficient Molecular Numerical Integration Schemes
              J. Chem. Phys. 102: 346 (1995)                   
          Parallel Version:                                
              Performance of parallel TURBOMOLE for Density    
              Functional Calculations                          
              M. v. Arnim and R. Ahlrichs                      
              J. Comp. Chem. 19: 1746 (1998)                   
          RI-J Method:                                     
              Auxiliary Basis Sets to approximate Coulomb      
              Potentials                                       
              Chem. Phys. Lett. 240: 283 (1995)                
              K. Eichkorn, O. Treutler, H. Oehm, M. Haeser     
              and R. Ahlrichs                                  
              Chem. Phys. Lett. 242: 652 (1995)                
                                                           
              Auxiliary Basis Sets for Main Row Atoms and their
              Use to approximate Coulomb Potentials            
              K. Eichkorn, F. Weigend, O. Treutler and         
              R. Ahlrichs                                      
              Theo. Chem. Acc. 97: 119 (1997)                   
                                                           
              Accurate Coulomb-fitting basis sets for H to Rn 
              F. Weigend                                        
              Phys. Chem. Chem. Phys. 8: 1057 (2006)            
                                                           
          Multipole accelerated RI-J (MARI-J):             
              Fast evaluation of the Coulomb potential for     
              electron densities using multipole accelerated   
              resolution of identity approximation             
              M. Sierka, A. Hogekamp and R. Ahlrichs           
              J. Chem. Phys. 118: 9136 (2003)                  
          RI-JK Method:                                     
              A fully direct RI-HF algorithm: Implementation,
              optimised auxiliary basis sets, demonstration of
              accuracy and efficiency                         
              F. Weigend                                      
              Phys. Chem. Chem. Phys. 4: 4285 (2002)           
          Two-component HF and DFT with spin-orbit coupling:  
              Self-consistent treatment of spin-orbit         
              interactions with efficient Hartree-Fock and    
              density functional methods                      
              M. K. Armbruster, F. Weigend, C. van Wüllen and 
              W. Klopper                                      
              Phys. Chem. Chem. Phys. 10: 1748 (2008)         
          Relativistic all-electron 2c calculations           
              An efficient implementation of two-component    
              relativistic exact-decoupling methods for large 
              molecules                                       
              D. Peng, N. Middendorf, F. Weigend, M. Reiher   
              J. Chem. Phys. 138, 184105 (2013)               
                                         


 


              +--------------------------------------------------+
              |      general information about current run       |
              +--------------------------------------------------+

 

 DENSITY CONVERGENCE CHECK SWITCHED ON !
 SCF CONVERGENCE IF RMS(delta[D]) <     0.1000000000E-06

 A HF calculation using the RI-J approximation will be carried out.
 Allocatable memory for RI due to $ricore (MB):       25000


              +--------------------------------------------------+
              | Atomic coordinate, charge and isotop information |
              +--------------------------------------------------+

                    atomic coordinates            atom    charge  isotop
         -9.01050929    1.99399077    0.48761409    c      6.000     0
        -10.21368647    1.90659678   -2.15704035    c      6.000     0
        -10.77368850   -0.83922994   -2.83502477    c      6.000     0
        -12.40968585   -2.06950125   -0.81153232    c      6.000     0
        -11.23257600   -1.71823540    1.81768017    c      6.000     0
        -10.81672463    0.89962724    2.24962797    o      8.000     0
         -8.54325114    2.82545006   -4.07546915    o      8.000     0
         -9.03512247    5.26382422   -5.10539693    c      6.000     0
         -8.58541105    5.09106560   -7.96624936    c      6.000     0
         -5.76039210    4.76884157   -8.51403311    c      6.000     0
         -4.21425462    6.71195467   -7.02331455    c      6.000     0
         -4.82175326    6.59461598   -4.20006997    c      6.000     0
         -7.50255875    7.12881935   -3.94609806    o      8.000     0
         -1.60432542    6.08535254   -7.50754811    o      8.000     0
         -0.00233644    8.03554362   -8.32726006    c      6.000     0
          1.80181619    6.96725979  -10.32290934    c      6.000     0
          3.58271897    5.06130745   -9.11903291    c      6.000     0
          4.88415218    6.22181435   -6.82306451    c      6.000     0
          2.88487296    7.16551349   -4.95437438    c      6.000     0
          1.43236747    9.07414414   -6.29077202    o      8.000     0
          6.44322100    4.23866063   -5.80090109    o      8.000     0
          8.96937620    4.84669916   -5.23226596    c      6.000     0
         10.64634012    2.62502124   -6.05069153    c      6.000     0
         10.15019565    0.31470268   -4.40791135    c      6.000     0
         10.36156177    0.99343532   -1.61296912    c      6.000     0
          8.55809343    3.19976395   -1.04202224    c      6.000     0
          9.32909074    5.31877232   -2.61832490    o      8.000     0
          9.70277577   -1.24731372   -0.25029385    o      8.000     0
         11.24866865   -1.94911211    1.83821095    c      6.000     0
         11.58753824   -4.82855519    1.71003004    c      6.000     0
          9.07604139   -6.13199782    2.31375852    c      6.000     0
          7.93474947   -5.03733894    4.73847644    c      6.000     0
          7.64453183   -2.16736962    4.54938991    c      6.000     0
         10.16571855   -1.15321401    4.15306451    o      8.000     0
          5.53108252   -6.29337368    5.03089016    o      8.000     0
          4.97114013   -7.33503701    7.40944082    c      6.000     0
          3.63308761   -9.87803252    7.00601152    c      6.000     0
          1.04278421   -9.48073651    5.81527997    c      6.000     0
         -0.49264158   -7.57309976    7.33708382    c      6.000     0
          1.03539508   -5.11379089    7.57817341    c      6.000     0
          3.38330299   -5.73222766    8.86921704    o      8.000     0
         -2.80403255   -7.20987824    5.97890463    o      8.000     0
         -5.10082497   -7.27065582    7.37909772    c      6.000     0
         -5.93189052   -4.79820457    7.98571311    o      8.000     0
         -6.31724084   -3.23116207    5.76290404    c      6.000     0
         -8.45645406   -4.45906673    4.25573320    c      6.000     0
         -7.75775222   -7.15168643    3.45610910    c      6.000     0
         -7.03534411   -8.72281092    5.77621955    c      6.000     0
         -6.79196743   -0.52871358    6.71257736    c      6.000     0
         -4.89404828    1.21494406    5.89127797    o      8.000     0
         -6.11590540  -11.17251892    5.19627269    o      8.000     0
         -9.84933307   -8.30956789    2.21876327    o      8.000     0
         -8.98037516   -3.12421159    1.93527282    o      8.000     0
         -0.34875027  -11.80009862    5.73500027    o      8.000     0
          5.03415438  -11.52595459    5.34424133    o      8.000     0
         -0.21177594   -2.95702261    9.06870628    c      6.000     0
         -0.39748089   -0.67592015    7.62857361    o      8.000     0
          9.49564902   -8.77417872    2.61179506    o      8.000     0
         12.64966018   -5.53531001   -0.64682249    o      8.000     0
          6.55121084   -0.82069952    6.87680944    c      6.000     0
          4.40299952    0.71275777    6.28312299    o      8.000     0
         11.94251942   -1.64372001   -4.93242663    o      8.000     0
         10.17738558    1.89753776   -8.64263436    o      8.000     0
          8.51222642    4.15765591    1.69827336    c      6.000     0
          6.02392203    4.15788960    2.75464662    o      8.000     0
          5.37291332    4.31641751  -11.00370816    o      8.000     0
          0.33174621    5.86816319  -12.30835622    o      8.000     0
          3.86464498    8.37286435   -2.50030483    c      6.000     0
          3.02777225    7.04873707   -0.29702695    o      8.000     0
         -5.34602681    5.08442765  -11.14997474    o      8.000     0
        -10.13167332    3.17634547   -9.03106287    o      8.000     0
         -3.41845133    8.48427492   -2.50280550    c      6.000     0
         -2.11990996    7.28286247   -0.45179027    o      8.000     0
        -12.02444626   -0.87124555   -5.23380413    o      8.000     0
        -12.66704677   -4.70131760   -1.48144196    o      8.000     0
         -8.32480335    4.62327928    1.50861469    c      6.000     0
         -5.73876566    4.79946528    2.28114480    o      8.000     0
          6.20302818  -12.51737430    6.34910966    h      1.000     0
          0.67921468  -12.99566890    4.79145489    h      1.000     0
         11.87718113   -4.47824342   -1.95340554    h      1.000     0
          7.86115519   -9.51054320    3.06043200    h      1.000     0
         11.34312084    2.80894314   -9.72349005    h      1.000     0
         11.77537427   -2.04745017   -6.71677746    h      1.000     0
          1.49087421    4.87202240  -13.32908192    h      1.000     0
          6.57629952    3.17844200  -10.17965225    h      1.000     0
        -10.15106299    1.75054390   -7.85389427    h      1.000     0
         -3.52088872    4.99419462  -11.43400549    h      1.000     0
        -14.28625340   -5.30655940   -0.87243494    h      1.000     0
        -12.39558807   -2.63164737   -5.60697575    h      1.000     0
         -4.29784450  -11.03561877    4.88471152    h      1.000     0
        -10.29781484   -7.19929474    0.81086278    h      1.000     0
          6.69820083   -7.55883476    8.53254434    h      1.000     0
          3.38154301  -10.78022744    8.85541550    h      1.000     0
          1.29300957   -8.72855644    3.89494487    h      1.000     0
         -0.90203185   -8.33964709    9.22355115    h      1.000     0
          1.47453516   -4.41856537    5.67753361    h      1.000     0
         13.08087164   -0.99462546    1.71772806    h      1.000     0
         12.96114605   -5.37944325    3.15979279    h      1.000     0
          7.74011522   -5.77274157    0.75918598    h      1.000     0
          9.15375896   -5.51276939    6.35134150    h      1.000     0
          6.46173751   -1.71253801    2.91087288    h      1.000     0
          9.52621381    6.60049687   -6.18574396    h      1.000     0
         12.62848691    3.18535455   -5.82282106    h      1.000     0
          8.21984019   -0.36589926   -4.76398106    h      1.000     0
         12.31458308    1.53933776   -1.16330287    h      1.000     0
          6.63523227    2.63692895   -1.56554248    h      1.000     0
         -1.09722583    9.61840750   -9.08688946    h      1.000     0
          2.92674080    8.54952243  -11.06605136    h      1.000     0
          2.48160806    3.41882891   -8.47859160    h      1.000     0
          6.08802413    7.80728053   -7.41433928    h      1.000     0
          1.63535762    5.59293881   -4.44881645    h      1.000     0
        -10.98948132    5.81791907   -4.70938505    h      1.000     0
         -9.19732170    6.87702548   -8.81915780    h      1.000     0
         -5.16539959    2.87359749   -7.88985434    h      1.000     0
         -4.60973894    8.61617504   -7.75036726    h      1.000     0
         -4.44067251    4.68039209   -3.50566765    h      1.000     0
        -12.53898990   -2.31389997    3.31219189    h      1.000     0
        -14.26815438   -1.15099737   -0.81639267    h      1.000     0
         -8.96769037   -1.85949980   -2.95395782    h      1.000     0
        -11.97306068    3.01077566   -2.17205151    h      1.000     0
         -7.29530033    0.83294102    0.47240358    h      1.000     0
         -4.80079920   -8.22020040    9.19325757    h      1.000     0
         -8.74176069   -8.99195227    6.92030963    h      1.000     0
         -6.11895729   -7.04019648    2.17862910    h      1.000     0
        -10.17986791   -4.51184488    5.41418584    h      1.000     0
         -4.58956283   -3.23403738    4.61975500    h      1.000     0
          9.64140585    2.94130540    2.92037375    h      1.000     0
          9.31683850    6.06937276    1.71941474    h      1.000     0
          4.90454394    5.24892268    1.71428855    h      1.000     0
          5.89568361   -2.18690619    8.27480625    h      1.000     0
          8.05829028    0.32835211    7.71973468    h      1.000     0
          4.90743181    2.01818578    5.03422496    h      1.000     0
         -2.14365702   -3.45016949    9.59284399    h      1.000     0
          0.89627232   -2.64670441   10.79428315    h      1.000     0
          1.31937646   -0.09216493    7.14446339    h      1.000     0
         -8.57735501    0.20455253    5.98716427    h      1.000     0
         -6.88338554   -0.58543042    8.78390759    h      1.000     0
         -3.22214309    0.63888967    6.51616359    h      1.000     0
          5.92624047    8.34154921   -2.42934727    h      1.000     0
          3.22459197   10.34505466   -2.45737038    h      1.000     0
         -8.57314487    6.06166594    0.05383808    h      1.000     0
         -9.59110405    5.04229147    3.09699664    h      1.000     0
         -5.39433326    3.53902338    3.62933869    h      1.000     0
         -1.97326756    9.49321675   -3.57263767    h      1.000     0
         -4.79923714    9.85551593   -1.78619221    h      1.000     0
         -3.36925646    6.37698156    0.61686091    h      1.000     0
          1.15021324    7.10501532   -0.22773263    h      1.000     0
 
       center of nuclear mass  :   -0.02804063   -0.13739323   -0.14380506
       center of nuclear charge:   -0.02445096   -0.12190086   -0.12742007

              +--------------------------------------------------+
              |               basis set information              |
              +--------------------------------------------------+

              we will work with the 1s 3p 5d 7f 9g ... basis set
              ...i.e. with spherical basis functions...

   type   atoms  prim   cont   basis
   ---------------------------------------------------------------------------
    c       42     77     57   def2-QZVP   [7s4p3d2f1g|15s8p3d2f1g]
    o       35     77     57   def2-QZVP   [7s4p3d2f1g|15s8p3d2f1g]
    h       70     33     30   def2-QZVP   [4s3p2d1f|7s3p2d1f]
   ---------------------------------------------------------------------------
   total:  147   8239   6489
   ---------------------------------------------------------------------------

   total number of primitive shells          :   71
   total number of contracted shells         : 2009
   total number of cartesian basis functions : 7994
   total number of SCF-basis functions       : 6489


 integral neglect threshold       :  0.42E-14
 integral storage threshold THIZE :  0.10E-04
 integral storage threshold THIME :         5

 RI-J AUXILIARY BASIS SET information:

              we will work with the 1s 3p 5d 7f 9g ... basis set
              ...i.e. with spherical basis functions...

   type   atoms  prim   cont   basis
   ---------------------------------------------------------------------------
    c       42     70     49   def2-QZVP   [6s4p3d1f1g|12s5p4d2f1g]
    o       35     70     49   def2-QZVP   [6s4p3d1f1g|12s5p4d2f1g]
    h       70     16     11   def2-QZVP   [3s1p1d|5s2p1d]
   ---------------------------------------------------------------------------
   total:  147   6510   4543
   ---------------------------------------------------------------------------

   total number of primitive shells          :   56
   total number of contracted shells         : 1505
   total number of cartesian basis functions : 5537
   total number of SCF-basis functions       : 4543


 symmetry group of the molecule :   c1 

 the group has the following generators :
   c1(z)

    1 symmetry operations found

 there are 1 real representations :   a   

 maximum number of shells which are related by symmetry :  1


    mo occupation :
   irrep   mo's   occupied
    a     6489      301
 
 number of basis functions   :         6489
 number of occupied orbitals :          301
 

 biggest AO integral is expected to be     6.990327543
  
           ------------------------
               RI-J - INFORMATION
           ------------------------
 Contributions to RI integral batches: 
  neglected integral batches:     1477843
  direct contribution:             401690
  memory contribution:      139512
 Memory core needed for (P|Q) and Cholesky    158 MByte
 Memory core minimum needed except of (P|Q)    23 MByte
 Total minimum memory core needed (sum)       180 MByte
  
 ****************************************
 Memory allocated for RI-J 21478 MByte
 ****************************************
                                            

          ------------------------
          nuclear repulsion energy  :   15981.8845266    
          ------------------------

 
          -----------------
          -S,T+V- integrals
          -----------------

 1e-integrals will be neglected if expon. factor < 0.418059E-15
 
   Difference densities algorithm switched on.
   The maximal number of linear combinations of
   difference densities is          20 .

 automatic virtual orbital shift switched on 
      shift if e(lumo)-e(homo) < 0.10000000    


 DIIS switched on: error vector is FDS-SDF
 Max. Iterations for DIIS is     :   5
 DIIS matrix (see manual) 
    Scaling factor of diagonals  :  1.200
    threshold for scaling factor :  0.000

 scf convergence criterion : increment of total energy < .1000000D-08
                  and increment of one-electron energy < .1000000D-05

  MOs are in ASCII format !


 reading orbital data $scfmo  from file mos . 

 orbital characterization : scfconv=9
 

 DSCF restart information will be dumped onto file mos


 Starting SCF iterations


 ENERGY & DENSITY CONVERGED !


 ITERATION  ENERGY          1e-ENERGY        2e-ENERGY     RMS[dD(SAO)]   TOL
   1  -4252.1406104170    -37739.649797     17505.624660    0.000D+00 0.417D-14
                            exK = -530.152309959     Coul =  18035.7769700    
                            current damping = 0.700
 
          max. resid. norm for Fia-block=  2.591D-01 for orbital      1a         
          max. resid. fock norm         =  8.005D-01 for orbital   6489a         

 End of SCF iterations

   convergence criteria satisfied after    1 iterations


                  ------------------------------------------ 
                 |  total energy      =  -4252.14061041695  |
                  ------------------------------------------ 
                 :  kinetic energy    =   4255.40870786762  :
                 :  potential energy  =  -8507.54931828457  :
                 :  virial theorem    =      2.00076857699  :
                 :  wavefunction norm =      1.00000000000  :
                  .......................................... 


 orbitals $scfmo  will be written to file mos

    irrep                297a        298a        299a        300a        301a   
 eigenvalues H         -0.42662    -0.42225    -0.41986    -0.42331    -0.41439
            eV         -11.6091    -11.4902    -11.4250    -11.5189    -11.2763
 occupation              2.0000      2.0000      2.0000      2.0000      2.0000 

    irrep                302a        303a        304a        305a        306a   
 eigenvalues H          0.09594     0.10245     0.10490     0.10733     0.11740
            eV           2.6106      2.7877      2.8545      2.9207      3.1948
 
 
 
 
 ==============================================================================
                           electrostatic moments
 ==============================================================================

 reference point for electrostatic moments:    0.00000   0.00000   0.00000

 
              nuc           elec       ->  total
 ------------------------------------------------------------------------------
                          charge      
 ------------------------------------------------------------------------------
         602.000000    -602.000000      -0.000000
 
 ------------------------------------------------------------------------------
                       dipole moment  
 ------------------------------------------------------------------------------
   x     -14.719475      16.252815       1.533340
   y     -73.384318      73.660443       0.276125
   z     -76.706883      77.537269       0.830386
 
   | dipole moment | =     1.7655 a.u. =     4.4874 debye 
 
 ------------------------------------------------------------------------------
                     quadrupole moment
 ------------------------------------------------------------------------------
  xx   34228.363672  -34546.371725    -318.008053
  yy   19961.302865  -20310.561823    -349.258958
  zz   20497.777378  -20842.867153    -345.089774
  xy    -434.381958     446.043881      11.661922
  xz     -21.754660      -2.409887     -24.164547
  yz  -14007.534539   13993.032201     -14.502338
 
     1/3  trace=    -337.452262
     anisotropy=      60.451974
 
 ==============================================================================
 
 


    ------------------------------------------------------------------------
         total  cpu-time :   1 days 16 hours 54 minutes and 35 seconds
         total wall-time :   1 days 16 hours 54 minutes and 59 seconds
    ------------------------------------------------------------------------


   ****  ridft : all done  ****


    2017-11-10 12:05:57.271 

