STARTING dscf ON 32 PROCESSORS!
RUNNING PROGRAM /sopt/TURBOMOLE/7.2.1-official/bin/em64t-unknown-linux-gnu_mpi/dscf_mpi.
PLEASE WAIT UNTIL dscf HAS FINISHED.
Look for the output in slave1.output.
MACHINEFILE is ./hostlist
 this is node-proc. number 1 running on node c-12-251.gp.local
 the total number of node-proc. spawned is  33
  parallel platform: MPP or cluster with fast interconnect

 dscf (c-12-251.gp.local) : TURBOMOLE V7.2 ( 21471 ) 7 Nov 2017 at 16:15:16
 Copyright (C) 2017 TURBOMOLE GmbH, Karlsruhe


    2018-02-12 13:00:05.020 


 SCF run will be profiled !



                             d s c f - program

                   idea & directorship : reinhart ahlrichs
                   program development : marco haeser
                                         michael baer
                           dft version : oliver treutler
           parallelized version : malte v. arnim, gina corongiu, GMD 


                          quantum chemistry group
                          universitaet  karlsruhe
                                  germany




                          References             
                                                 
          TURBOMOLE:                             
              R. Ahlrichs, M. Baer, M. Haeser, H. Horn, and
              C. Koelmel
              Electronic structure calculations on workstation
              computers: the program system TURBOMOLE
              Chem. Phys. Lett. 162: 165 (1989)
          Density Functional:                              
              O. Treutler and R. Ahlrichs                      
              Efficient Molecular Numerical Integration Schemes
              J. Chem. Phys. 102: 346 (1995)                   
          Parallel Version:                                
              Performance of parallel TURBOMOLE for Density    
              Functional Calculations                          
              M. v. Arnim and R. Ahlrichs                      
              J. Comp. Chem. 19: 1746 (1998)                   
                                         




              +--------------------------------------------------+
              | Atomic coordinate, charge and isotop information |
              +--------------------------------------------------+

                    atomic coordinates            atom    charge  isotop
          4.41838034   -2.61487186  -11.98726950    c      6.000     0
          2.83811320   -1.33048993  -10.28750999    c      6.000     0
          2.83811320    1.33048993  -10.28750999    c      6.000     0
          4.41838034    2.61487186  -11.98726950    c      6.000     0
          5.95528636    1.31742797  -13.68222526    c      6.000     0
          5.95528636   -1.31742797  -13.68222526    c      6.000     0
          1.33578336    2.86796025   -8.48215258    c      6.000     0
          2.60772072    4.56772203   -6.92173951    c      6.000     0
          1.37044715    6.32435236   -5.37247426    c      6.000     0
         -1.37044715    6.32435236   -5.37247426    c      6.000     0
         -2.60772072    4.56772203   -6.92173951    c      6.000     0
         -1.33578336    2.86796025   -8.48215258    c      6.000     0
          2.78885574    8.05370114   -3.73099407    c      6.000     0
          1.35097844    9.91334749   -2.60488531    c      6.000     0
         -1.35097844    9.91334749   -2.60488531    c      6.000     0
         -2.78885574    8.05370114   -3.73099407    c      6.000     0
         -2.17055560   11.27878858   -0.45508808    c      6.000     0
          0.00000000   12.11515003    0.87570238    c      6.000     0
          2.17055560   11.27878858   -0.45508808    c      6.000     0
          0.00000000   12.57411288    3.45500941    c      6.000     0
         -2.47682019   12.52075969    4.60783236    c      6.000     0
         -4.60635120   11.71121823    3.30382585    c      6.000     0
         -4.48416466   10.86319100    0.71008064    c      6.000     0
         -6.14647753    9.20494679   -0.66878481    c      6.000     0
         -5.33334093    7.86122768   -2.77909455    c      6.000     0
          2.47682019   12.52075969    4.60783236    c      6.000     0
          4.60635120   11.71121823    3.30382585    c      6.000     0
          4.48416466   10.86319100    0.71008064    c      6.000     0
          6.14647753    9.20494679   -0.66878481    c      6.000     0
          5.33334093    7.86122768   -2.77909455    c      6.000     0
         -2.83811320    1.33048993  -10.28750999    c      6.000     0
         -2.83811320   -1.33048993  -10.28750999    c      6.000     0
         -4.41838034   -2.61487186  -11.98726950    c      6.000     0
         -5.95528636   -1.31742797  -13.68222526    c      6.000     0
         -5.95528636    1.31742797  -13.68222526    c      6.000     0
         -4.41838034    2.61487186  -11.98726950    c      6.000     0
          1.33578336   -2.86796025   -8.48215258    c      6.000     0
          2.60772072   -4.56772203   -6.92173951    c      6.000     0
          1.37044715   -6.32435236   -5.37247426    c      6.000     0
         -1.37044715   -6.32435236   -5.37247426    c      6.000     0
         -2.60772072   -4.56772203   -6.92173951    c      6.000     0
         -1.33578336   -2.86796025   -8.48215258    c      6.000     0
         -2.78885574   -8.05370114   -3.73099407    c      6.000     0
         -1.35097844   -9.91334749   -2.60488531    c      6.000     0
          1.35097844   -9.91334749   -2.60488531    c      6.000     0
          2.78885574   -8.05370114   -3.73099407    c      6.000     0
          2.17055560  -11.27878858   -0.45508808    c      6.000     0
          0.00000000  -12.11515003    0.87570238    c      6.000     0
         -2.17055560  -11.27878858   -0.45508808    c      6.000     0
         -5.33334093   -7.86122768   -2.77909455    c      6.000     0
         -6.14647753   -9.20494679   -0.66878481    c      6.000     0
         -4.48416466  -10.86319100    0.71008064    c      6.000     0
         -4.60635120  -11.71121823    3.30382585    c      6.000     0
         -2.47682019  -12.52075969    4.60783236    c      6.000     0
          0.00000000  -12.57411288    3.45500941    c      6.000     0
          5.33334093   -7.86122768   -2.77909455    c      6.000     0
          6.14647753   -9.20494679   -0.66878481    c      6.000     0
          4.48416466  -10.86319100    0.71008064    c      6.000     0
          4.60635120  -11.71121823    3.30382585    c      6.000     0
          2.47682019  -12.52075969    4.60783236    c      6.000     0
         -8.02878913    8.82002182    0.05890052    h      1.000     0
         -6.62391717    6.48557212   -3.59048444    h      1.000     0
          6.62391717    6.48557212   -3.59048444    h      1.000     0
          8.02878913    8.82002182    0.05890052    h      1.000     0
          6.37176455   11.53633833    4.34024034    h      1.000     0
          2.66682091   12.94551392    6.60912408    h      1.000     0
         -2.66682091   12.94551392    6.60912408    h      1.000     0
         -6.37176455   11.53633833    4.34024034    h      1.000     0
         -6.37176455  -11.53633833    4.34024034    h      1.000     0
         -2.66682091  -12.94551392    6.60912408    h      1.000     0
          2.66682091  -12.94551392    6.60912408    h      1.000     0
          6.37176455  -11.53633833    4.34024034    h      1.000     0
          8.02878913   -8.82002182    0.05890052    h      1.000     0
          6.62391717   -6.48557212   -3.59048444    h      1.000     0
         -6.62391717   -6.48557212   -3.59048444    h      1.000     0
         -8.02878913   -8.82002182    0.05890052    h      1.000     0
          4.66077634    4.56215217   -6.95941216    h      1.000     0
         -4.66077634    4.56215217   -6.95941216    h      1.000     0
          4.66077634   -4.56215217   -6.95941216    h      1.000     0
         -4.66077634   -4.56215217   -6.95941216    h      1.000     0
         -4.40961230    4.66821297  -11.97085081    h      1.000     0
         -7.14193551    2.35843122  -14.99417671    h      1.000     0
         -7.14193551   -2.35843122  -14.99417671    h      1.000     0
         -4.40961230   -4.66821297  -11.97085081    h      1.000     0
          4.40961230    4.66821297  -11.97085081    h      1.000     0
          7.14193551    2.35843122  -14.99417671    h      1.000     0
          7.14193551   -2.35843122  -14.99417671    h      1.000     0
          4.40961230   -4.66821297  -11.97085081    h      1.000     0
         -6.58065103    1.31967945    5.51158394    c      6.000     0
         -5.73285989    2.69341234    3.28915692    c      6.000     0
         -4.35711531    4.91007724    4.14081518    c      6.000     0
         -4.35826430    4.91404006    6.88593044    c      6.000     0
         -2.21895782    5.71588651    2.82541127    c      6.000     0
         -4.91664222    1.37363891    1.15165670    c      6.000     0
         -5.73074287    2.69238922    7.73443689    c      6.000     0
         -6.58065103   -1.31967945    5.51158394    c      6.000     0
         -4.91459209    1.37292404    9.86959608    c      6.000     0
         -2.22254866    5.73043140    8.20673398    c      6.000     0
          0.00000000    6.56356737    4.19735611    c      6.000     0
         -1.37253789    4.34822475    0.60378548    c      6.000     0
          0.00000000    6.57360792    6.83403228    c      6.000     0
         -1.37363572    4.35656945   10.42728768    c      6.000     0
         -2.69308449    2.22122291   11.24216217    c      6.000     0
         -4.91459209   -1.37292404    9.86959608    c      6.000     0
         -5.73074287   -2.69238922    7.73443689    c      6.000     0
         -5.73285989   -2.69341234    3.28915692    c      6.000     0
         -4.91664222   -1.37363891    1.15165670    c      6.000     0
         -2.69212319    2.21833898   -0.21913358    c      6.000     0
          2.21895782    5.71588651    2.82541127    c      6.000     0
          1.37253789    4.34822475    0.60378548    c      6.000     0
         -2.69212319   -2.21833898   -0.21913358    c      6.000     0
         -1.32071373    0.00000000   -1.07686002    c      6.000     0
         -4.35826430   -4.91404006    6.88593044    c      6.000     0
         -4.35711531   -4.91007724    4.14081518    c      6.000     0
         -2.69308449   -2.22122291   11.24216217    c      6.000     0
         -1.31953892    0.00000000   12.09019010    c      6.000     0
          1.37363572    4.35656945   10.42728768    c      6.000     0
          2.22254866    5.73043140    8.20673398    c      6.000     0
          4.35826430    4.91404006    6.88593044    c      6.000     0
          4.35711531    4.91007724    4.14081518    c      6.000     0
          2.69212319    2.21833898   -0.21913358    c      6.000     0
          1.32071373    0.00000000   -1.07686002    c      6.000     0
         -2.21895782   -5.71588651    2.82541127    c      6.000     0
         -1.37253789   -4.34822475    0.60378548    c      6.000     0
         -1.37363572   -4.35656945   10.42728768    c      6.000     0
         -2.22254866   -5.73043140    8.20673398    c      6.000     0
          1.31953892    0.00000000   12.09019010    c      6.000     0
          2.69308449    2.22122291   11.24216217    c      6.000     0
          5.73285989    2.69341234    3.28915692    c      6.000     0
          4.91664222    1.37363891    1.15165670    c      6.000     0
          2.69212319   -2.21833898   -0.21913358    c      6.000     0
          1.37253789   -4.34822475    0.60378548    c      6.000     0
          0.00000000   -6.56356737    4.19735611    c      6.000     0
          0.00000000   -6.57360792    6.83403228    c      6.000     0
          1.37363572   -4.35656945   10.42728768    c      6.000     0
          2.69308449   -2.22122291   11.24216217    c      6.000     0
          4.91459209    1.37292404    9.86959608    c      6.000     0
          5.73074287    2.69238922    7.73443689    c      6.000     0
          4.91459209   -1.37292404    9.86959608    c      6.000     0
          6.58065103    1.31967945    5.51158394    c      6.000     0
          4.91664222   -1.37363891    1.15165670    c      6.000     0
          2.21895782   -5.71588651    2.82541127    c      6.000     0
          2.22254866   -5.73043140    8.20673398    c      6.000     0
          4.35826430   -4.91404006    6.88593044    c      6.000     0
          5.73074287   -2.69238922    7.73443689    c      6.000     0
          6.58065103   -1.31967945    5.51158394    c      6.000     0
          5.73285989   -2.69341234    3.28915692    c      6.000     0
          4.35711531   -4.91007724    4.14081518    c      6.000     0
 
       center of nuclear mass  :    0.00000000   -0.00000000    0.79386296
       center of nuclear charge:    0.00000000    0.00000000    0.70873420

              +--------------------------------------------------+
              |               basis set information              |
              +--------------------------------------------------+

              we will work with the 1s 3p 5d 7f 9g ... basis set
              ...i.e. with spherical basis functions...

   type   atoms  prim   cont   basis
   ---------------------------------------------------------------------------
    c      120     50     30   cc-pVTZ   [4s3p2d1f|18s5p2d1f]
    h       28     16     14   cc-pVTZ   [3s2p1d|5s2p1d]
   ---------------------------------------------------------------------------
   total:  148   6448   3992
   ---------------------------------------------------------------------------

   total number of primitive shells          :   34
   total number of contracted shells         : 1368
   total number of cartesian basis functions : 4620
   total number of SCF-basis functions       : 3992


 integral neglect threshold       :  0.72E-14
 integral storage threshold THIZE :  0.10E-04
 integral storage threshold THIME :         5


 DENSITY CONVERGENCE CHECK SWITCHED ON !
 SCF CONVERGENCE IF RMS(delta[D]) <     0.1000000000E-06


 symmetry group of the molecule :   c1 

 the group has the following generators :
   c1(z)

    1 symmetry operations found

 there are 1 real representations :   a   

 maximum number of shells which are related by symmetry :  1


    mo occupation :
   irrep   mo's   occupied
    a     3992      374
 
 number of basis functions   :                   3992
 number of occupied orbitals :                    374
 

 automatic virtual orbital shift switched on 
      shift if e(lumo)-e(homo) < 0.10000000    


   ----> a dscf RESTART run will be tried ! <----

 $restart flag 'dscf' will be switched off !


 keyword $2e-ints_shell_statistics missing in file <control>

 ! One task per shell generated
  No pre-computed optimal task distribution found
  ... using automatic task generation

          ------------------------
          nuclear repulsion energy  :   25780.5745092    
          ------------------------


         -----------------
         -S,T+V- integrals
         -----------------

 1e-integrals will be neglected if expon. factor < 0.723368E-15
 
   Difference densities algorithm switched on.
   The maximal number of linear combinations of
   difference densities is                    20 .

 DIIS switched on: error vector is FDS-SDF
 Max. Iterations for DIIS is     :   5
 DIIS matrix (see manual) 
    Scaling factor of diagonals  :  1.200
    threshold for scaling factor :  0.000

 scf convergence criterion : increment of total energy < .1000000D-08
                  and increment of one-electron energy < .1000000D-05

  MOs are in ASCII format !


 reading orbital data $scfmo  from file mos
 orbital characterization : scfdump=2

 DSCF restart information will be dumped onto file mos


 complete restart information read in from $restartd
 iterations from earlier run will be continued
no density matrices from previous iterations found
  expected :                      2  found :                      0
 
                                              current damping :  0.200
 ITERATION  ENERGY          1e-ENERGY        2e-ENERGY     RMS[dD(SAO)]   TOL
   3  -4561.0893398053    -57590.170228     27248.506379    0.619D-02 0.722D-14
          max. resid. norm for Fia-block=  5.511D-02 for orbital    200a         
          max. resid. fock norm         =  8.470D-02 for orbital    597a         
          Delta Eig. =    15.6096482305 eV 
 
                                              current damping :  0.250
 ITERATION  ENERGY          1e-ENERGY        2e-ENERGY     RMS[dD(SAO)]   TOL
   4  -4561.3881091501    -57639.916311     27297.953692    0.486D-03 0.458D-14
          Norm of current diis error:  1.6933    
          max. resid. norm for Fia-block=  2.596D-02 for orbital    370a         
          max. resid. fock norm         =  4.405D-02 for orbital    762a         
          Delta Eig. =     4.0635389957 eV 
 
                                              current damping :  0.300
 ITERATION  ENERGY          1e-ENERGY        2e-ENERGY     RMS[dD(SAO)]   TOL
   5  -4561.4759336073    -57618.336346     27276.285903    0.374D-03 0.429D-14
          Norm of current diis error: 0.48329    
          max. resid. norm for Fia-block=  9.064D-03 for orbital    372a         
          max. resid. fock norm         =  1.560D-02 for orbital    140a         
 mo-orthogonalization: Cholesky decomposition
          Delta Eig. =     0.6329089222 eV 
 
                                              current damping :  0.350
 ITERATION  ENERGY          1e-ENERGY        2e-ENERGY     RMS[dD(SAO)]   TOL
   6  -4561.4894143049    -57620.933048     27278.869125    0.103D-03 0.359D-14
          Norm of current diis error: 0.21966    
          max. resid. norm for Fia-block=  3.949D-03 for orbital    197a         
          max. resid. fock norm         =  7.351D-03 for orbital    195a         
          Delta Eig. =     0.2068834373 eV 
 
                                              current damping :  0.400
 ITERATION  ENERGY          1e-ENERGY        2e-ENERGY     RMS[dD(SAO)]   TOL
   7  -4561.4920838859    -57620.546916     27278.480323    0.482D-04 0.335D-14
          Norm of current diis error: 0.87980E-01
          max. resid. norm for Fia-block=  1.873D-03 for orbital    372a         
          max. resid. fock norm         =  2.416D-03 for orbital    378a         
          Delta Eig. =     0.0685622094 eV 
 
                                              current damping :  0.450
 ITERATION  ENERGY          1e-ENERGY        2e-ENERGY     RMS[dD(SAO)]   TOL
   8  -4561.4926883158    -57620.784829     27278.717631    0.219D-04 0.309D-14
          Norm of current diis error: 0.33431E-01
          max. resid. norm for Fia-block=  8.939D-04 for orbital    365a         
          max. resid. fock norm         =  1.230D-03 for orbital    378a         
          Delta Eig. =     0.0145428067 eV 
 
                                              current damping :  0.500
 ITERATION  ENERGY          1e-ENERGY        2e-ENERGY     RMS[dD(SAO)]   TOL
   9  -4561.4928119791    -57620.762593     27278.695271    0.101D-04 0.287D-14
          Norm of current diis error: 0.16291E-01
          max. resid. norm for Fia-block=  5.150D-04 for orbital    369a         
          max. resid. fock norm         =  6.726D-04 for orbital    378a         
          Delta Eig. =     0.0085294156 eV 
 
                                              current damping :  0.550
 ITERATION  ENERGY          1e-ENERGY        2e-ENERGY     RMS[dD(SAO)]   TOL
  10  -4561.4928432305    -57620.772819     27278.705467    0.460D-05 0.269D-14
          Norm of current diis error: 0.80177E-02
          max. resid. norm for Fia-block=  2.882D-04 for orbital    365a         
          max. resid. fock norm         =  3.718D-04 for orbital    378a         
 mo-orthogonalization: Cholesky decomposition
          Delta Eig. =     0.0043024896 eV 
 
                                              current damping :  0.400
 ITERATION  ENERGY          1e-ENERGY        2e-ENERGY     RMS[dD(SAO)]   TOL
  11  -4561.4928513763    -57620.774354     27278.706993    0.209D-05 0.256D-14
          Norm of current diis error: 0.42322E-02
          max. resid. norm for Fia-block=  1.675D-04 for orbital    369a         
          max. resid. fock norm         =  2.005D-04 for orbital    378a         
          Delta Eig. =     0.0034718610 eV 
 
                                              current damping :  0.250
 ITERATION  ENERGY          1e-ENERGY        2e-ENERGY     RMS[dD(SAO)]   TOL
  12  -4561.4928538279    -57620.776485     27278.709122    0.117D-05 0.245D-14
          Norm of current diis error: 0.19275E-02
          max. resid. norm for Fia-block=  8.460D-05 for orbital    365a         
          max. resid. fock norm         =  9.581D-05 for orbital    378a         
          Delta Eig. =     0.0014668120 eV 
 
                                              current damping :  0.300
 ITERATION  ENERGY          1e-ENERGY        2e-ENERGY     RMS[dD(SAO)]   TOL
  13  -4561.4928543861    -57620.776347     27278.708983    0.545D-06 0.235D-14
          Norm of current diis error: 0.88395E-03
          max. resid. norm for Fia-block=  3.619D-05 for orbital    369a         
          max. resid. fock norm         =  3.946D-05 for orbital    369a         
          Delta Eig. =     0.0008972321 eV 
 
                                              current damping :  0.350
 ITERATION  ENERGY          1e-ENERGY        2e-ENERGY     RMS[dD(SAO)]   TOL
  14  -4561.4928544800    -57620.778980     27278.711616    0.216D-06 0.228D-14
          Norm of current diis error: 0.40601E-03
          max. resid. norm for Fia-block=  1.772D-05 for orbital    363a         
          max. resid. fock norm         =  1.797D-05 for orbital    363a         
          Delta Eig. =     0.0003524864 eV 

 DENSITY CONVERGED !

 
                                              current damping :  0.400
 ITERATION  ENERGY          1e-ENERGY        2e-ENERGY     RMS[dD(SAO)]   TOL
  15  -4561.4928544997    -57620.777469     27278.710105    0.909D-07 0.223D-14
          Norm of current diis error: 0.20062E-03
          max. resid. norm for Fia-block=  8.901D-06 for orbital    369a         
          max. resid. fock norm         =  9.326D-06 for orbital    383a         
 mo-orthogonalization: Cholesky decomposition
          Delta Eig. =     0.0001559419 eV 

 DENSITY CONVERGED !

 
                                              current damping :  0.450
 ITERATION  ENERGY          1e-ENERGY        2e-ENERGY     RMS[dD(SAO)]   TOL
  16  -4561.4928545044    -57620.778512     27278.711148    0.544D-07 0.217D-14
          Norm of current diis error: 0.11052E-03
          max. resid. norm for Fia-block=  5.623D-06 for orbital    369a         
          max. resid. fock norm         =  6.325D-06 for orbital    383a         
          Delta Eig. =     0.0000735023 eV 

 DENSITY CONVERGED !

 
                                              current damping :  0.500
 ITERATION  ENERGY          1e-ENERGY        2e-ENERGY     RMS[dD(SAO)]   TOL
  17  -4561.4928545076    -57620.778141     27278.710778    0.282D-07 0.210D-14
          Norm of current diis error: 0.65312E-04
          max. resid. norm for Fia-block=  3.865D-06 for orbital    369a         
          max. resid. fock norm         =  4.169D-06 for orbital    383a         
          Delta Eig. =     0.0000335909 eV 

 DENSITY CONVERGED !

 
                                              current damping :  0.550
 ITERATION  ENERGY          1e-ENERGY        2e-ENERGY     RMS[dD(SAO)]   TOL
  18  -4561.4928545087    -57620.778292     27278.710928    0.189D-07 0.203D-14
          Norm of current diis error: 0.39594E-04
          max. resid. norm for Fia-block=  2.570D-06 for orbital    368a         
          max. resid. fock norm         =  2.731D-06 for orbital    383a         
          Delta Eig. =     0.0000137353 eV 

 DENSITY CONVERGED !

 
                                              current damping :  0.600
 ITERATION  ENERGY          1e-ENERGY        2e-ENERGY     RMS[dD(SAO)]   TOL
  19  -4561.4928545094    -57620.778207     27278.710844    0.112D-07 0.195D-14
          Norm of current diis error: 0.24667E-04
          max. resid. norm for Fia-block=  1.825D-06 for orbital    372a         
          max. resid. fock norm         =  1.851D-06 for orbital    372a         
          Delta Eig. =     0.0000151658 eV 

 DENSITY CONVERGED !

 
                                              current damping :  0.650
 ITERATION  ENERGY          1e-ENERGY        2e-ENERGY     RMS[dD(SAO)]   TOL
  20  -4561.4928545100    -57620.778259     27278.710896    0.723D-08 0.205D-14
          Norm of current diis error: 0.15218E-04
          max. resid. norm for Fia-block=  1.198D-06 for orbital    372a         
          max. resid. fock norm         =  1.233D-06 for orbital    372a         
 mo-orthogonalization: Cholesky decomposition
          Delta Eig. =     0.0000068637 eV 

 DENSITY CONVERGED !

 
                                              current damping :  0.700
 ITERATION  ENERGY          1e-ENERGY        2e-ENERGY     RMS[dD(SAO)]   TOL
  21  -4561.4928545100    -57620.778215     27278.710851    0.431D-08 0.206D-14
          Norm of current diis error: 0.92746E-05
          max. resid. norm for Fia-block=  8.038D-07 for orbital    372a         
          max. resid. fock norm         =  8.163D-07 for orbital    372a         
          Delta Eig. =     0.0000053862 eV 

 DENSITY CONVERGED !

 
                                              current damping :  0.750
 ITERATION  ENERGY          1e-ENERGY        2e-ENERGY     RMS[dD(SAO)]   TOL
  22  -4561.4928545091    -57620.778234     27278.710871    0.262D-08 0.205D-14
          Norm of current diis error: 0.56807E-05
          max. resid. norm for Fia-block=  4.425D-07 for orbital    372a         
          max. resid. fock norm         =  4.524D-07 for orbital    372a         
          Delta Eig. =     0.0000017343 eV 

 ENERGY & DENSITY CONVERGED !

 
                                              current damping :  0.800
 ITERATION  ENERGY          1e-ENERGY        2e-ENERGY     RMS[dD(SAO)]   TOL
  23  -4561.4928545094    -57620.778228     27278.710865    0.139D-08 0.206D-14
          max. resid. norm for Fia-block=  1.266D-07 for orbital    363a         
          max. resid. fock norm         =  1.275D-07 for orbital    363a         

 convergence criteria satisfied after    23 iterations


                  ------------------------------------------ 
                 |  total energy      =  -4561.49285450943  |
                  ------------------------------------------ 
                 :  kinetic energy    =   4554.08514225401  :
                 :  potential energy  =  -9115.57799676344  :
                 :  virial theorem    =      1.99837603335  :
                 :  wavefunction norm =      1.00000000000  :
                  .......................................... 


 <geterg> : there is no data group $energy 


 <skperg> : $end is missing 


 orbitals $scfmo  will be written to file mos

    irrep                370a        371a        372a        373a        374a   
 eigenvalues H         -0.27513    -0.27507    -0.27278    -0.27271    -0.27078
            eV          -7.4867     -7.4852     -7.4227     -7.4210     -7.3685
 occupation              2.0000      2.0000      2.0000      2.0000      2.0000 

    irrep                375a        376a        377a        378a        379a   
 eigenvalues H         -0.01979    -0.01962    -0.01854     0.04243     0.04243
            eV          -0.5385     -0.5339     -0.5045      1.1545      1.1545
 
 
 
 
 ==============================================================================
                           electrostatic moments
 ==============================================================================

 reference point for electrostatic moments:    0.00000   0.00000   0.00000

 
              nuc           elec       ->  total
 ------------------------------------------------------------------------------
                          charge      
 ------------------------------------------------------------------------------
         748.000000    -748.000000      -0.000000
 
 ------------------------------------------------------------------------------
                       dipole moment  
 ------------------------------------------------------------------------------
   x      -0.000000      -0.000000      -0.000000
   y       0.000000       0.000000       0.000000
   z     530.133184    -530.349116      -0.215933
 
   | dipole moment | =     0.2159 a.u. =     0.5488 debye 
 
 ------------------------------------------------------------------------------
                     quadrupole moment
 ------------------------------------------------------------------------------
  xx   11233.660449  -11719.417890    -485.757441
  yy   33203.230437  -33730.498116    -527.267679
  zz   33996.890780  -34491.883128    -494.992348
  xy      -0.000000      -0.000000      -0.000000
  xz      -0.000000      -0.000000      -0.000000
  yz      -0.000000      -0.000000      -0.000000
 
     1/3  trace=    -502.672489
     anisotropy=      37.749705
 
 ==============================================================================
 

    dscf profiling
  --------------------------------------------------------------------
             module   cpu total (s)       %  wall total (s)       %

          dscf.total         47139.1  100.00         43467.9  100.00
        dscf.prepare            94.4    0.20            94.5    0.22
      prepare.oneint             0.7    0.00             0.7    0.00
     prepare.moinput            23.5    0.05            23.5    0.05
     moinput_orthmos            69.8    0.15            69.9    0.16
            dscf.scf         47039.1   99.79         43367.7   99.77
             scf.pre             6.0    0.01             6.1    0.01
        scf.makedmat            78.1    0.17            78.6    0.18
          scf.shloop         41125.8   87.24         41156.4   94.68
          shloop_omp         41121.8   87.23         41152.4   94.67
          scf.symcar             7.4    0.02             7.4    0.02
        scf.makefock            12.9    0.03            14.9    0.03
          scf.newerg             0.5    0.00             0.5    0.00
          scf.newcnv          1285.4    2.73           162.8    0.37
           scf.fdiag          2795.2    5.93           359.7    0.83
         diag_tritrn           932.4    1.98           116.9    0.27
          diag_rdiag          1850.2    3.92           240.5    0.55
          scf.modump          1399.7    2.97          1386.0    3.19
           ortho_all           256.7    0.54           124.3    0.29
            scf.post            69.9    0.15            70.6    0.16
        dscf.postscf             5.5    0.01             5.7    0.01
 


    ------------------------------------------------------------------------
         total  cpu-time : 13 hours  5 minutes and 39 seconds
         total wall-time : 12 hours  4 minutes and 28 seconds
    ------------------------------------------------------------------------

   ****  dscf : all done  ****


    2018-02-13 01:04:33.042 

