STARTING dscf ON 16 PROCESSORS!
RUNNING PROGRAM /beegfs/modfac/apps/TURBOMOLE/7.2.1-official/bin/em64t-unknown-linux-gnu_mpi/dscf_mpi.
PLEASE WAIT UNTIL dscf HAS FINISHED.
Look for the output in slave1.output.
MACHINEFILE is ./hostlist
 this is node-proc. number 1 running on node c-5-18.local
 the total number of node-proc. spawned is  17
  parallel platform: MPP or cluster with fast interconnect

 dscf (c-5-18.local) : TURBOMOLE V7.2 ( 21471 ) 7 Nov 2017 at 16:15:16
 Copyright (C) 2017 TURBOMOLE GmbH, Karlsruhe


    2018-02-14 09:48:27.688 


 SCF run will be profiled !



                             d s c f - program

                   idea & directorship : reinhart ahlrichs
                   program development : marco haeser
                                         michael baer
                           dft version : oliver treutler
           parallelized version : malte v. arnim, gina corongiu, GMD 


                          quantum chemistry group
                          universitaet  karlsruhe
                                  germany




                          References             
                                                 
          TURBOMOLE:                             
              R. Ahlrichs, M. Baer, M. Haeser, H. Horn, and
              C. Koelmel
              Electronic structure calculations on workstation
              computers: the program system TURBOMOLE
              Chem. Phys. Lett. 162: 165 (1989)
          Density Functional:                              
              O. Treutler and R. Ahlrichs                      
              Efficient Molecular Numerical Integration Schemes
              J. Chem. Phys. 102: 346 (1995)                   
          Parallel Version:                                
              Performance of parallel TURBOMOLE for Density    
              Functional Calculations                          
              M. v. Arnim and R. Ahlrichs                      
              J. Comp. Chem. 19: 1746 (1998)                   
                                         




              +--------------------------------------------------+
              | Atomic coordinate, charge and isotop information |
              +--------------------------------------------------+

                    atomic coordinates            atom    charge  isotop
          0.32696170    1.25867937    2.48489213    c      6.000     0
         -2.22619754    1.25130346   -1.15966532    c      6.000     0
         -0.74915700   -0.96544014   -2.25585167    c      6.000     0
          1.86612310   -0.95784113    1.47738083    c      6.000     0
          1.85284242   -0.83273264   -1.29624909    n      7.000     0
         -2.21314782    1.18131346    1.54788970    o      8.000     0
          2.90341849   -2.26810700   -2.02925511    h      1.000     0
         -0.71225365   -0.82984835   -4.32216254    h      1.000     0
          3.82047083   -0.81650181    2.14823639    h      1.000     0
          0.17600859    1.18976438    4.54445453    h      1.000     0
         -4.21331752    1.17687934   -1.72108890    h      1.000     0
          1.04213065   -2.73346596    2.20937722    h      1.000     0
         -1.71530028   -2.74149046   -1.72663333    h      1.000     0
         -1.38668005    3.03994272   -1.81683296    h      1.000     0
          1.22809808    3.04754476    1.91550810    h      1.000     0
 
       center of nuclear mass  :   -0.20317508    0.15312583    0.14200181
       center of nuclear charge:   -0.17263185    0.12929805    0.12065653

              +--------------------------------------------------+
              |               basis set information              |
              +--------------------------------------------------+

              we will work with the 1s 3p 5d 7f 9g ... basis set
              ...i.e. with spherical basis functions...

   type   atoms  prim   cont   basis
   ---------------------------------------------------------------------------
    c        4     77     57   def2-QZVP   [7s4p3d2f1g|15s8p3d2f1g]
    n        1     77     57   def2-QZVP   [7s4p3d2f1g|15s8p3d2f1g]
    o        1     77     57   def2-QZVP   [7s4p3d2f1g|15s8p3d2f1g]
    h        9     33     30   def2-QZVP   [4s3p2d1f|7s3p2d1f]
   ---------------------------------------------------------------------------
   total:   15    759    612
   ---------------------------------------------------------------------------

   total number of primitive shells          :  100
   total number of contracted shells         :  192
   total number of cartesian basis functions :  747
   total number of SCF-basis functions       :  612


 integral neglect threshold       :  0.45E-13
 integral storage threshold THIZE :  0.10E-04
 integral storage threshold THIME :         5


 DENSITY CONVERGENCE CHECK SWITCHED ON !
 SCF CONVERGENCE IF RMS(delta[D]) <     0.1000000000E-06


 symmetry group of the molecule :   c1 

 the group has the following generators :
   c1(z)

    1 symmetry operations found

 there are 1 real representations :   a   

 maximum number of shells which are related by symmetry :  1


    mo occupation :
   irrep   mo's   occupied
    a      612       24
 
 number of basis functions   :                    612
 number of occupied orbitals :                     24
 

 automatic virtual orbital shift switched on 
      shift if e(lumo)-e(homo) < 0.10000000    


 keyword $2e-ints_shell_statistics missing in file <control>

 ! One task per shell generated
  No pre-computed optimal task distribution found
  ... using automatic task generation

          ------------------------
          nuclear repulsion energy  :   262.515660107    
          ------------------------


         -----------------
         -S,T+V- integrals
         -----------------

 1e-integrals will be neglected if expon. factor < 0.447384E-14
 
   Difference densities algorithm switched on.
   The maximal number of linear combinations of
   difference densities is                    20 .

 DIIS switched on: error vector is FDS-SDF
 Max. Iterations for DIIS is     :   5
 DIIS matrix (see manual) 
    Scaling factor of diagonals  :  1.200
    threshold for scaling factor :  0.000

 scf convergence criterion : increment of total energy < .1000000D-08
                  and increment of one-electron energy < .1000000D-05

  MOs are in ASCII format !


 reading orbital data $scfmo  from file mos
 orbital characterization : scfconv=9

 DSCF restart information will be dumped onto file mos

 
                                              current damping :  0.300
 ITERATION  ENERGY          1e-ENERGY        2e-ENERGY     RMS[dD(SAO)]   TOL
   1  -286.12403711562    -909.59656626     360.95686903    0.000D+00 0.446D-13
          max. resid. norm for Fia-block=  8.516D-04 for orbital      1a         
          max. resid. fock norm         =  1.160D-02 for orbital    599a         
          Delta Eig. =     6.4524062781 eV 
 
                                              current damping :  0.250
 ITERATION  ENERGY          1e-ENERGY        2e-ENERGY     RMS[dD(SAO)]   TOL
   2  -286.12403778819    -909.59691806     360.95722017    0.757D-05 0.283D-13
          Norm of current diis error: 0.16157E-02
          max. resid. norm for Fia-block=  2.080D-04 for orbital      1a         
          max. resid. fock norm         =  2.657D-03 for orbital    599a         
          Delta Eig. =     1.5489367660 eV 
 
                                              current damping :  0.200
 ITERATION  ENERGY          1e-ENERGY        2e-ENERGY     RMS[dD(SAO)]   TOL
   3  -286.12403784920    -909.59658620     360.95688824    0.280D-05 0.221D-13
          Norm of current diis error: 0.37601E-03
          max. resid. norm for Fia-block=  4.202D-05 for orbital      1a         
          max. resid. fock norm         =  5.312D-04 for orbital    599a         
          Delta Eig. =     0.3228232771 eV 
 
                                              current damping :  0.250
 ITERATION  ENERGY          1e-ENERGY        2e-ENERGY     RMS[dD(SAO)]   TOL
   4  -286.12403785276    -909.59674390     360.95704594    0.744D-06 0.195D-13
          Norm of current diis error: 0.75052E-04
          max. resid. norm for Fia-block=  6.960D-06 for orbital      1a         
          max. resid. fock norm         =  8.835D-05 for orbital    599a         
          Delta Eig. =     0.0516156452 eV 
 
                                              current damping :  0.300
 ITERATION  ENERGY          1e-ENERGY        2e-ENERGY     RMS[dD(SAO)]   TOL
   5  -286.12403785291    -909.59668240     360.95698444    0.147D-06 0.183D-13
          Norm of current diis error: 0.21593E-04
          max. resid. norm for Fia-block=  1.463D-06 for orbital     18a         
          max. resid. fock norm         =  1.778D-05 for orbital    599a         
 mo-orthogonalization: Cholesky decomposition
          Delta Eig. =     0.0099247711 eV 

 DENSITY CONVERGED !

 
                                              current damping :  0.350
 ITERATION  ENERGY          1e-ENERGY        2e-ENERGY     RMS[dD(SAO)]   TOL
   6  -286.12403785294    -909.59669794     360.95699998    0.376D-07 0.174D-13
          Norm of current diis error: 0.70759E-05
          max. resid. norm for Fia-block=  4.817D-07 for orbital     18a         
          max. resid. fock norm         =  4.071D-06 for orbital    599a         
          Delta Eig. =     0.0022123370 eV 

 ENERGY & DENSITY CONVERGED !

 
                                              current damping :  0.400
 ITERATION  ENERGY          1e-ENERGY        2e-ENERGY     RMS[dD(SAO)]   TOL
   7  -286.12403785294    -909.59669620     360.95699824    0.115D-07 0.165D-13
          max. resid. norm for Fia-block=  1.573D-07 for orbital     24a         
          max. resid. fock norm         =  1.074D-06 for orbital    599a         

 convergence criteria satisfied after     7 iterations


                  ------------------------------------------ 
                 |  total energy      =   -286.12403785294  |
                  ------------------------------------------ 
                 :  kinetic energy    =    285.66837091182  :
                 :  potential energy  =   -571.79240876476  :
                 :  virial theorem    =      1.99840744963  :
                 :  wavefunction norm =      1.00000000000  :
                  .......................................... 


 orbitals $scfmo  will be written to file mos

    irrep                 20a         21a         22a         23a         24a   
 eigenvalues H         -0.50046    -0.48755    -0.45741    -0.41706    -0.37616
            eV         -13.6184    -13.2669    -12.4468    -11.3488    -10.2358
 occupation              2.0000      2.0000      2.0000      2.0000      2.0000 

    irrep                 25a         26a         27a         28a         29a   
 eigenvalues H          0.10230     0.12447     0.12662     0.13822     0.15232
            eV           2.7836      3.3871      3.4456      3.7612      4.1449
 
 
 
 
 ==============================================================================
                           electrostatic moments
 ==============================================================================

 reference point for electrostatic moments:    0.00000   0.00000   0.00000

 
              nuc           elec       ->  total
 ------------------------------------------------------------------------------
                          charge      
 ------------------------------------------------------------------------------
          48.000000     -48.000000      -0.000000
 
 ------------------------------------------------------------------------------
                       dipole moment  
 ------------------------------------------------------------------------------
   x      -8.286329       8.689106       0.402778
   y       6.206306      -6.638675      -0.432369
   z       5.791513      -6.072765      -0.281251
 
   | dipole moment | =     0.6544 a.u. =     1.6634 debye 
 
 ------------------------------------------------------------------------------
                     quadrupole moment
 ------------------------------------------------------------------------------
  xx     166.629991    -195.787761     -29.157770
  yy      88.832132    -116.104295     -27.272163
  zz     185.536495    -212.483430     -26.946935
  xy     -64.827252      64.145173      -0.682079
  xz      26.409817     -23.364050       3.045767
  yz      45.646048     -45.163237       0.482810
 
     1/3  trace=     -27.792289
     anisotropy=       5.848046
 
 ==============================================================================
 

    dscf profiling
  --------------------------------------------------------------------
             module   cpu total (s)       %  wall total (s)       %

          dscf.total           220.1  100.00           197.5  100.00
        dscf.prepare             0.6    0.28             0.7    0.34
      prepare.oneint             0.0    0.01             0.0    0.01
     prepare.moinput             0.3    0.15             0.3    0.16
     moinput_orthmos             0.2    0.08             0.2    0.09
            dscf.scf           219.3   99.64           196.6   99.54
             scf.pre             0.0    0.00             0.0    0.01
        scf.makedmat             0.1    0.06             0.1    0.07
          scf.shloop           184.9   84.02           184.7   93.54
          shloop_omp           184.9   84.01           184.7   93.52
          scf.symcar             0.0    0.02             0.0    0.02
        scf.makefock             0.1    0.02             0.1    0.06
          scf.newerg             0.0    0.00             0.0    0.00
          scf.newcnv             1.5    0.68             0.2    0.10
           scf.fdiag             6.7    3.07             0.8    0.43
         diag_tritrn             0.9    0.41             0.1    0.06
          diag_rdiag             2.7    1.23             0.3    0.17
          scf.modump            21.0    9.53             8.8    4.45
           ortho_all             0.9    0.41             0.1    0.06
            scf.post             3.4    1.53             1.5    0.76
        dscf.postscf             0.2    0.08             0.2    0.12
 


    ------------------------------------------------------------------------
         total  cpu-time :  3 minutes and 40 seconds
         total wall-time :  3 minutes and 18 seconds
    ------------------------------------------------------------------------

   ****  dscf : all done  ****


    2018-02-14 09:51:45.279 

