
OPTIMIZATION CYCLE 11
Tue Feb  2 12:29:21 PST 2016
 operating system is UNIX !
 hostname is         c-9-374.local

 statpt (c-9-374.local) : TURBOMOLE V7.0.2( ) 8 Jan 2016 at 10:54:38
 Copyright (C) 2016 TURBOMOLE GmbH, Karlsruhe


    2016-02-02 12:29:21.281 



                           this is S T A T P T   


                     hessian and coordinate update for
                          stationary point search 

                     by barbara unterreiner, marek sierka,
                           and reinhart ahlrichs

                          quantum chemistry group
                          universitaet  karlsruhe
                                  germany


  Keyword $statpt not found - using default options
 
        ***************  Stationary point options ******************
        ************************************************************
           Maximum allowed trust radius:           3.000000E-01
           Minimum allowed trust radius:           1.000000E-03
           Initial trust radius:                   1.500000E-01
           GDIIS used if gradient norm <           1.000000E-02
           Number of previous steps for GDIIS:       5
           Hessian update method:                  BFGS
                        *** Convergence criteria ***                
           Threshold for energy change:            1.000000E-07
           Threshold for max displacement element: 1.000000E-03
           Threshold for max gradient element :    1.000000E-04
           Threshold for RMS of displacement:      5.000000E-04
           Threshold for RMS of gradient:          5.000000E-04
        ************************************************************
 
     Number of symmetry restricted degrees of freedom:    60
     Constituted by:     3 translational degrees of freedom
                         3 rotational degrees of freedom
                      54 internal degrees of freedom

  *************************************************************************
   ATOM                      CARTESIAN COORDINATES
    1 c       2.23654812483487     -0.68049980618553      2.38019887467418
    2 c      -0.47611092904340      0.31021625987477      2.38478025005218
    3 c      -1.89723050395199     -0.53651514308515      0.00000069717875
    4 c      -0.47611116209593      0.31020907838817     -2.38478151980305
    5 c       2.23655153367689     -0.68049853316158     -2.38019717540317
    6 c       3.64932642512435      0.14792402302955      0.00000196853169
    7 c      -4.50045625314518      0.41398116536450     -0.00000064566271
    8 c      -6.62937526139947      1.24156374246267     -0.00000157670062
    9 h       2.20503256682069     -2.74701813110219      2.46776248042916
   10 h       3.22443434581465     -0.02326360306591      4.06703376195874
   11 h      -1.48765064756011     -0.33827438012073      4.05981931722864
   12 h      -0.46569143399439      2.37650315287508      2.44048011926249
   13 h      -1.97523526062165     -2.60446032925670      0.00000380150407
   14 h      -1.48764873190432     -0.33829160112720     -4.05981829655317
   15 h      -0.46569771997181      2.37649558286612     -2.44049062229567
   16 h       3.22443747307138     -0.02325691037478     -4.06702960339840
   17 h       2.20504213213491     -2.74701721871689     -2.46776471221385
   18 h       3.82603460937377      2.20870152683774      0.00000254875005
   19 h       5.56253610058519     -0.62244906013768      0.00000311109486
   20 h      -8.50627596396395      1.95533600735113     -0.00000277863422
  *************************************************************************
   ATOM                      CARTESIAN GRADIENTS  
    1 c      -0.00000015512405     -0.00000084202390      0.00000009801143
    2 c       0.00000031100285      0.00000083647629      0.00000015014921
    3 c      -0.00000156548335     -0.00000099620195      0.00000001614827
    4 c       0.00000028273099      0.00000071920959     -0.00000013336966
    5 c      -0.00000005661796     -0.00000051032469     -0.00000014219840
    6 c       0.00000044091920      0.00000025977316     -0.00000001461763
    7 c      -0.00000046543119      0.00000108037432      0.00000002673745
    8 c      -0.00000002456949     -0.00000100111615     -0.00000000404801
    9 h      -0.00000011966572      0.00000006044980     -0.00000042353884
   10 h      -0.00000008583509      0.00000050438001      0.00000017907127
   11 h       0.00000004965119     -0.00000039466641      0.00000004328312
   12 h      -0.00000005590427     -0.00000011675492     -0.00000010759810
   13 h       0.00000171518051      0.00000043134598     -0.00000002059802
   14 h       0.00000000429807     -0.00000041989881     -0.00000005297105
   15 h      -0.00000005116058     -0.00000015765912      0.00000007976544
   16 h      -0.00000009451667      0.00000048768430     -0.00000007787783
   17 h      -0.00000011380802     -0.00000005338094      0.00000039396511
   18 h      -0.00000043061094     -0.00000005244277     -0.00000002927127
   19 h      -0.00000017939430     -0.00000064639223      0.00000002478444
   20 h       0.00000067375824      0.00000085467471     -0.00000000583725
  *************************************************************************

  norm of actual CARTESIAN gradient:  3.84997E-06
  norm of actual INTERNAL  gradient:  4.41506E-06

  ENERGY =    -312.6705269088 a.u.; # of cycle =   11

  Approximate Hessian read from $hessapprox data section

  Hessian updated according to BFGS formula
  Number of zero Hessian eigenvalues:   0
  Number of structures for GDIIS interpolation:    5
  GDIIS step:     0.000029

  Transforming internal coordinate displacements to Cartesian space
      Iteration   1 residual norm     2.872141E-05
      Iteration   2 residual norm     6.869208E-10
      Transformation converged
      Residual norm:    6.869208E-10 after    2 iterations

      ****************************************************************** 
                          CONVERGENCE INFORMATION

                               Converged?     Value      Criterion
             Energy change         yes      0.0000001   0.0000001
             RMS of displacement   yes      0.0000039   0.0005000
             RMS of gradient       yes      0.0000006   0.0005000
             MAX displacement      yes      0.0000220   0.0010000
             MAX gradient          yes      0.0000029   0.0001000
      ****************************************************************** 


    ------------------------------------------------------------------------
         total  cpu-time :   0.05 seconds
         total wall-time :   0.05 seconds
    ------------------------------------------------------------------------


   ****  statpt : all done  ****


    2016-02-02 12:29:21.324 

fine, there is no data group "$actual step"
next step = ridft
 operating system is UNIX !
 hostname is         c-9-374.local

 ridft (c-9-374.local) : TURBOMOLE V7.0( ) 18 Nov 2015 at 09:57:41
 Copyright (C) 2015 TURBOMOLE GmbH, Karlsruhe


    2016-02-02 12:29:21.383 



                                  r i d f t

                        DFT program with RI approximation 
                                for coulomb part 




                                                 
                                 References:     
                                                 
          TURBOMOLE:                             
              R. Ahlrichs, M. Baer, M. Haeser, H. Horn, and
              C. Koelmel
              Electronic structure calculations on workstation
              computers: the program system TURBOMOLE
              Chem. Phys. Lett. 162: 165 (1989)
          Density Functional:                              
              O. Treutler and R. Ahlrichs                      
              Efficient Molecular Numerical Integration Schemes
              J. Chem. Phys. 102: 346 (1995)                   
          Parallel Version:                                
              Performance of parallel TURBOMOLE for Density    
              Functional Calculations                          
              M. v. Arnim and R. Ahlrichs                      
              J. Comp. Chem. 19: 1746 (1998)                   
          RI-J Method:                                     
              Auxiliary Basis Sets to approximate Coulomb      
              Potentials                                       
              Chem. Phys. Lett. 240: 283 (1995)                
              K. Eichkorn, O. Treutler, H. Oehm, M. Haeser     
              and R. Ahlrichs                                  
              Chem. Phys. Lett. 242: 652 (1995)                
                                                           
              Auxiliary Basis Sets for Main Row Atoms and their
              Use to approximate Coulomb Potentials            
              K. Eichkorn, F. Weigend, O. Treutler and         
              R. Ahlrichs                                      
              Theo. Chem. Acc. 97: 119 (1997)                   
                                                           
              Accurate Coulomb-fitting basis sets for H to Rn 
              F. Weigend                                        
              Phys. Chem. Chem. Phys. 8: 1057 (2006)            
                                                           
          Multipole accelerated RI-J (MARI-J):             
              Fast evaluation of the Coulomb potential for     
              electron densities using multipole accelerated   
              resolution of identity approximation             
              M. Sierka, A. Hogekamp and R. Ahlrichs           
              J. Chem. Phys. 118: 9136 (2003)                  
          RI-JK Method:                                     
              A fully direct RI-HF algorithm: Implementation,
              optimised auxiliary basis sets, demonstration of
              accuracy and efficiency                         
              F. Weigend                                      
              Phys. Chem. Chem. Phys. 4: 4285 (2002)           
          Two-component HF and DFT with spin-orbit coupling:  
              Self-consistent treatment of spin-orbit         
              interactions with efficient Hartree-Fock and    
              density functional methods                      
              M. K. Armbruster, F. Weigend, C. van Wüllen and 
              W. Klopper                                      
              Phys. Chem. Chem. Phys. 10: 1748 (2008)         
          Relativistic all-electron 2c calculations           
              An efficient implementation of two-component    
              relativistic exact-decoupling methods for large 
              molecules                                       
              D. Peng, N. Middendorf, F. Weigend, M. Reiher   
              J. Chem. Phys. 138, 184105 (2013)               
                                         


 


              +--------------------------------------------------+
              |      general information about current run       |
              +--------------------------------------------------+

 

 DENSITY CONVERGENCE CHECK SWITCHED ON !
 SCF CONVERGENCE IF RMS(delta[D]) <     0.1000000000E-06

 PBE functional
 exchange:    LDA + PBE
 correlation: LDA (PW) + PBE
 A DFT calculation using the RI-J approximation will be carried out.
 Allocatable memory for RI due to $ricore (MB):       15000


              +--------------------------------------------------+
              | Atomic coordinate, charge and isotop information |
              +--------------------------------------------------+

                    atomic coordinates            atom    charge  isotop
          2.23654967   -0.68050265    2.38019900    c      6.000     0
         -0.47610704    0.31022591    2.38477930    c      6.000     0
         -1.89722806   -0.53650180    0.00000051    c      6.000     0
         -0.47610706    0.31021885   -2.38478062    c      6.000     0
          2.23655295   -0.68050152   -2.38019724    c      6.000     0
          3.64933026    0.14791710    0.00000194    c      6.000     0
         -4.50045698    0.41399504   -0.00000082    c      6.000     0
         -6.62938538    1.24155476   -0.00000151    c      6.000     0
          2.20502488   -2.74702058    2.46776414    h      1.000     0
          3.22443794   -0.02327574    4.06703502    h      1.000     0
         -1.48765080   -0.33825275    4.05981969    h      1.000     0
         -0.46567381    2.37651238    2.44047695    h      1.000     0
         -1.97525593   -2.60444577    0.00000358    h      1.000     0
         -1.48764843   -0.33826955   -4.05981890    h      1.000     0
         -0.46567965    2.37650496   -2.44048720    h      1.000     0
          3.22444092   -0.02326971   -4.06703121    h      1.000     0
          2.20503381   -2.74701953   -2.46776578    h      1.000     0
          3.82604766    2.20869342    0.00000258    h      1.000     0
          5.56253939   -0.62245648    0.00000306    h      1.000     0
         -8.50630489    1.95527948   -0.00000249    h      1.000     0
 
       center of nuclear mass  :   -0.59566122    0.05353354    0.00000006
       center of nuclear charge:   -0.48802998    0.04385690    0.00000005

              +--------------------------------------------------+
              |               basis set information              |
              +--------------------------------------------------+

              we will work with the 1s 3p 5d 7f 9g ... basis set
              ...i.e. with spherical basis functions...

   type   atoms  prim   cont   basis
   ---------------------------------------------------------------------------
    c        8     77     55   cc-pVQZ   [5s4p3d2f1g|21s6p3d2f1g]
    h       12     32     30   cc-pVQZ   [4s3p2d1f|6s3p2d1f]
   ---------------------------------------------------------------------------
   total:   20   1000    800
   ---------------------------------------------------------------------------

   total number of primitive shells          :   45
   total number of contracted shells         :  240
   total number of cartesian basis functions :  980
   total number of SCF-basis functions       :  800


 integral neglect threshold       :  0.34E-13
 integral storage threshold THIZE :  0.10E-04
 integral storage threshold THIME :         5

 RI-J AUXILIARY BASIS SET information:

              we will work with the 1s 3p 5d 7f 9g ... basis set
              ...i.e. with spherical basis functions...

   type   atoms  prim   cont   basis
   ---------------------------------------------------------------------------
    c        8     70     49   cc-pVQZ   [6s4p3d1f1g|12s5p4d2f1g]
    h       12     16     11   cc-pVQZ   [3s1p1d|5s2p1d]
   ---------------------------------------------------------------------------
   total:   20    752    524
   ---------------------------------------------------------------------------

   total number of primitive shells          :   32
   total number of contracted shells         :  180
   total number of cartesian basis functions :  632
   total number of SCF-basis functions       :  524


 symmetry group of the molecule :   c1 

 the group has the following generators :
   c1(z)

    1 symmetry operations found

 there are 1 real representations :   a   

 maximum number of shells which are related by symmetry :  1


    mo occupation :
   irrep   mo's   occupied
    a      800       30
 
 number of basis functions   :          800
 number of occupied orbitals :           30
 
  
           ------------------
           density functional
           ------------------
 PBE functional
 exchange:    LDA + PBE
 correlation: LDA (PW) + PBE
 iterations will be done with small grid
  
 spherical integration : Lebedev's spherical grid
 spherical gridsize    :           5
    i.e. gridpoints    :         590
 value for diffuse not defined
 radial integration    : Chebyshev 2nd kind (scaling 3)
 radial gridsize       :           8
 integration cells     :          20
 partition function    : becke
 partition sharpness   :           3
  

 biggest AO integral is expected to be     3.537514283
  
           ------------------------
               RI-J - INFORMATION
           ------------------------
 Contributions to RI integral batches: 
  neglected integral batches:        4768
  direct contribution:                  0
  memory contribution:       24152
 Memory core needed for (P|Q) and Cholesky      3 MByte
 Memory core minimum needed except of (P|Q)     4 MByte
 Total minimum memory core needed (sum)         6 MByte
  
 ****************************************
 Memory allocated for RI-J  1940 MByte
 ****************************************
                                            

          ------------------------
          nuclear repulsion energy  :   361.343768725    
          ------------------------

 
          -----------------
          -S,T+V- integrals
          -----------------

 1e-integrals will be neglected if expon. factor < 0.341016E-14
 
   Difference densities algorithm switched on.
   The maximal number of linear combinations of
   difference densities is          20 .

 automatic virtual orbital shift switched on 
      shift if e(lumo)-e(homo) < 0.10000000    


 DIIS switched on: error vector is FDS-SDF
 Max. Iterations for DIIS is     :   4
 DIIS matrix (see manual) 
    Scaling factor of diagonals  :  1.200
    threshold for scaling factor :  0.000

 scf convergence criterion : increment of total energy < .1000000D-08
                  and increment of one-electron energy < .1000000D-05

  MOs are in ASCII format !


 reading orbital data $scfmo  from file mos . 

 orbital characterization : scfconv=9
 

 DSCF restart information will be dumped onto file mos


 Starting SCF iterations

          Overall gridpoints after grid construction =         90218

 ITERATION  ENERGY          1e-ENERGY        2e-ENERGY     RMS[dD(SAO)]   TOL
   1  -311.71154827230    -1134.9649966     461.90967956    0.000D+00 0.340D-13
                            Exc = -47.4983673118     Coul =  509.408046870    
                              N = 59.999889273    
                            current damping = 0.700
 
          max. resid. norm for Fia-block=  1.660D-05 for orbital      8a         
          max. resid. fock norm         =  3.377D-04 for orbital    793a         

 ITERATION  ENERGY          1e-ENERGY        2e-ENERGY     RMS[dD(SAO)]   TOL
   2  -311.71154827249    -1134.9650011     461.90968414    0.681D-07 0.216D-13
                            Exc = -47.4983677223     Coul =  509.408051862    
                              N = 59.999889273    
                            current damping = 0.700
 
          Norm of current diis error: 0.53991E-04
          max. resid. norm for Fia-block=  6.820D-06 for orbital      8a         
          max. resid. fock norm         =  1.390D-04 for orbital    793a         

 ENERGY & DENSITY CONVERGED !

          Overall gridpoints after grid construction =        296720

 ITERATION  ENERGY          1e-ENERGY        2e-ENERGY     RMS[dD(SAO)]   TOL
   3  -311.71157950823    -1134.9650010     461.90965280    0.280D-07 0.167D-13
                            Exc = -47.4983987329     Coul =  509.408051534    
                              N = 60.000000902    
                            current damping = 0.750
 
          Norm of current diis error: 0.23341E-04
          max. resid. norm for Fia-block=  2.810D-06 for orbital      8a         
          max. resid. fock norm         =  5.725D-05 for orbital    793a         

 End of SCF iterations

   convergence criteria satisfied after    3 iterations


                  ------------------------------------------ 
                 |  total energy      =   -311.71157950823  |
                  ------------------------------------------ 
                 :  kinetic energy    =    310.23791200952  :
                 :  potential energy  =   -621.94949151775  :
                 :  virial theorem    =      1.99527233637  :
                 :  wavefunction norm =      1.00000000000  :
                  .......................................... 


 orbitals $scfmo  will be written to file mos

    irrep                 26a         27a         28a         29a         30a   
 eigenvalues H         -0.28490    -0.27703    -0.27333    -0.23385    -0.23225
            eV          -7.7525     -7.5384     -7.4378     -6.3635     -6.3198
 occupation              2.0000      2.0000      2.0000      2.0000      2.0000 

    irrep                 31a         32a         33a         34a         35a   
 eigenvalues H          0.00110     0.00917     0.01060     0.01857     0.02929
            eV           0.0300      0.2495      0.2885      0.5052      0.7971
 
 
 
 
 ==============================================================================
                           electrostatic moments
 ==============================================================================

 reference point for electrostatic moments:    0.00000   0.00000   0.00000

 
              nuc           elec       ->  total
 ------------------------------------------------------------------------------
                          charge      
 ------------------------------------------------------------------------------
          60.000000     -60.000000       0.000000
 
 ------------------------------------------------------------------------------
                       dipole moment  
 ------------------------------------------------------------------------------
   x     -29.281799      29.695429       0.413630
   y       2.631414      -2.720747      -0.089333
   z       0.000003      -0.000003       0.000000
 
   | dipole moment | =     0.4232 a.u. =     1.0756 debye 
 
 ------------------------------------------------------------------------------
                     quadrupole moment
 ------------------------------------------------------------------------------
  xx     706.683356    -744.237808     -37.554452
  yy      61.337019     -98.875289     -37.538271
  zz     226.367638    -264.397425     -38.029787
  xy     -91.224779      90.542612      -0.682167
  xz       0.000123      -0.000123       0.000001
  yz       0.000091      -0.000091      -0.000001
 
     1/3  trace=     -37.707503
     anisotropy=       1.276697
 
 ==============================================================================
 
 


    ------------------------------------------------------------------------
         total  cpu-time :  43.72 seconds
         total wall-time :  43.72 seconds
    ------------------------------------------------------------------------


   ****  ridft : all done  ****


    2016-02-02 12:30:05.104 

fine, there is no data group "$actual step"
next step = rirpa
 
 
    *************************************************************************
    *************************** PROGRAM RIRPA *******************************
    ******                                                             ******
    ******              H. Eshuis, J. E. Bates and F. Furche           ******
    ******                                                             ******
    ****** Nov 2011                                                    ******
    ****** Copyright TURBOMOLE GmbH                                    ******
    *************************************************************************
    
    
                                References:                                  
    
                   RIRPA:                                                    
                     H. Eshuis, J. Yarkony and F. Furche                     
                     Fast computation of molecular random phase              
                     approximation correlation energies using resolution     
                     of the identity imaginary frequency integration         
                     J. Chem. Phys. 132: 234114 (2010)                       
    
                     H. Eshuis, J. E. Bates and F. Furche                    
                     Electron correlation methods based on                   
                     the random phase approximation                          
                     Theor. Chem. Acc.  131: 1084 (2012)                     
    
                   TWO-COMPONENT RIRPA:                                      
                     M. Kuehn                                                
                     Correlation energies from the                           
                     two-component random-phase approximation                
                     J. Chem. Theory Comput. 10: 623 (2014)                  
    
                   RIRPA GRADIENTS:                                          
                     Asbjoern M. Burow, Jefferson E. Bates, Filipp Furche*,  
                     and Henk Eshuis                                         
                     Analytical First-Order Molecular Properties and Forces  
                     within the Adiabatic Connection Random Phase            
                     Approximation                                           
                     J. Chem. Theory Comput. (2013, ASAP),                   
                     DOI: 10.1021/ct4008553                                  
    
    
    
 hostname is         c-9-374.local

 rirpa (c-9-374.local) : TURBOMOLE V7.0( ) 18 Nov 2015 at 09:57:41
 Copyright (C) 2015 TURBOMOLE GmbH, Karlsruhe


    2016-02-02 12:30:05.163 

 number of mkl threads =          10
 
                FOUND RI-J FLAG
 
  HF exact exchange energy will be computed using RI-J.


              +--------------------------------------------------+
              | Atomic coordinate, charge and isotop information |
              +--------------------------------------------------+

                    atomic coordinates            atom    charge  isotop
          2.23654967   -0.68050265    2.38019900    c      6.000     0
         -0.47610704    0.31022591    2.38477930    c      6.000     0
         -1.89722806   -0.53650180    0.00000051    c      6.000     0
         -0.47610706    0.31021885   -2.38478062    c      6.000     0
          2.23655295   -0.68050152   -2.38019724    c      6.000     0
          3.64933026    0.14791710    0.00000194    c      6.000     0
         -4.50045698    0.41399504   -0.00000082    c      6.000     0
         -6.62938538    1.24155476   -0.00000151    c      6.000     0
          2.20502488   -2.74702058    2.46776414    h      1.000     0
          3.22443794   -0.02327574    4.06703502    h      1.000     0
         -1.48765080   -0.33825275    4.05981969    h      1.000     0
         -0.46567381    2.37651238    2.44047695    h      1.000     0
         -1.97525593   -2.60444577    0.00000358    h      1.000     0
         -1.48764843   -0.33826955   -4.05981890    h      1.000     0
         -0.46567965    2.37650496   -2.44048720    h      1.000     0
          3.22444092   -0.02326971   -4.06703121    h      1.000     0
          2.20503381   -2.74701953   -2.46776578    h      1.000     0
          3.82604766    2.20869342    0.00000258    h      1.000     0
          5.56253939   -0.62245648    0.00000306    h      1.000     0
         -8.50630489    1.95527948   -0.00000249    h      1.000     0
 
       center of nuclear mass  :   -0.59566122    0.05353354    0.00000006
       center of nuclear charge:   -0.48802998    0.04385690    0.00000005
              +-------------------------------------------------+
              |        Rotational Constants Section             |
              +-------------------------------------------------+
                                   Center of Mass [a.u]:
              -0.59566121983996         0.05353354043588         0.00000005803081
                     Principal Moments of Inertia [a.u.]
             421.96638001585848      1300.28581293434695      1605.45826660375042
                       Rotational constants A,B,C [a.u.]
               0.00118492852436         0.00038453084316         0.00031143755674
                     Rotational constants A,B,C [cm**-1]
               0.14266465145743         0.04629727244033         0.03749688657997
                        Rotational constants A,B,C [MHz]
            4276.97865301360889      1387.95731035817926      1124.12837951563529

   * BASIS SET information:

              +--------------------------------------------------+
              |               basis set information              |
              +--------------------------------------------------+

              we will work with the 1s 3p 5d 7f 9g ... basis set
              ...i.e. with spherical basis functions...

   type   atoms  prim   cont   basis
   ---------------------------------------------------------------------------
    c        8     77     55   cc-pVQZ   [5s4p3d2f1g|21s6p3d2f1g]
    h       12     32     30   cc-pVQZ   [4s3p2d1f|6s3p2d1f]
   ---------------------------------------------------------------------------
   total:   20   1000    800
   ---------------------------------------------------------------------------

   total number of primitive shells          :   45
   total number of contracted shells         :  240
   total number of cartesian basis functions :  980
   total number of SCF-basis functions       :  800


   * AUXILIARY BASIS SET information:

              +--------------------------------------------------+
              |               basis set information              |
              +--------------------------------------------------+

              we will work with the 1s 3p 5d 7f 9g ... basis set
              ...i.e. with spherical basis functions...

   type   atoms  prim   cont   basis
   ---------------------------------------------------------------------------
    c        8    132    132   cc-pVQZ   [8s7p6d5f3g1h|8s7p6d5f3g1h]
    h       12     55     55   cc-pVQZ   [5s4p3d2f1g|5s4p3d2f1g]
   ---------------------------------------------------------------------------
   total:   20   1716   1716
   ---------------------------------------------------------------------------

   total number of primitive shells          :   45
   total number of contracted shells         :  420
   total number of cartesian basis functions : 2288
   total number of SCF-basis functions       : 1716


   * RIJ AUXILIARY BASIS SET information:

              +--------------------------------------------------+
              |               basis set information              |
              +--------------------------------------------------+

              we will work with the 1s 3p 5d 7f 9g ... basis set
              ...i.e. with spherical basis functions...

   type   atoms  prim   cont   basis
   ---------------------------------------------------------------------------
    c        8     70     49   cc-pVQZ   [6s4p3d1f1g|12s5p4d2f1g]
    h       12     16     11   cc-pVQZ   [3s1p1d|5s2p1d]
   ---------------------------------------------------------------------------
   total:   20    752    524
   ---------------------------------------------------------------------------

   total number of primitive shells          :   32
   total number of contracted shells         :  180
   total number of cartesian basis functions :  632
   total number of SCF-basis functions       :  524


 reading orbital data $scfmo  from file mos . 

 orbital characterization : scfconv=9
 

 integral neglect threshold       :  0.32E+02

 scfconv           9

 MAXIMUM CORE MEMORY WHICH CAN BE ALLOCATED DYNAMICALLY = 20000 MiB
              ( or 2621440000 double words )


 there are 1 real representations :   a   

 maximum number of shells which are related by symmetry :  1


         --------------------------------------------------------------
                   checking mo's by calculating trace(D*S)

              number of electrons : 
                 from trace(D*S)         :   59.999999999983
                 from occupation numbers :   60.000000000000

              molecular charge           :    0.000000000000
         --------------------------------------------------------------

 time elapsed for calculating density matrices :   0.327 sec
 all orbitals will be active in the correlation treatment

     total memory allocated for calculation of (Q|P)**(-1/2) : 34 MiB


     calculation of (P|Q) ...
     time in lp2sym        cpu:  0.73 sec    wall:  0.07 sec    ratio: 10.0


     calculation of the Cholesky decomposition of (P|Q)**(-1) ...
     time in invmetri      cpu:  2.86 sec    wall:  0.29 sec    ratio: 10.0

   threshold for RMS(d[D]) in SCF was     :  0.10E-06
   integral neglect threshold             :  0.15E-13
   derivative integral neglect threshold  :  0.10E-06


 setting up bound for integral derivative estimation

 increment for numerical differentiation : 0.00050000
 total memory allocated for calculation of (Q|P)**(-1/2) : 34 MiB
 Dividing biap into          990  block chunks,
 using                    10 MB per block
 Reserved                   9980 MB for BLAS routines
 Estimated total memory usage:                  19983 MB
 number of passes:            1
 
 Number of eigenvalues < 6e-3:            0
 
 
            -----------------------------
            Complex frequency integration
            -----------------------------
 
 Number of Clenshaw-Curtis nodes:          200
 Optimized scaling parameter    :    1.18407576928285     
 Sensitivity measure            :  -7.888589781401834E-011
 
 Allocatable memory for RI due to $ricore (MB):       15000

 there are 1 real representations :   a   

 maximum number of shells which are related by symmetry :  1

  
           ------------------------
               RI-J - INFORMATION
           ------------------------
 Contributions to RI integral batches: 
  neglected integral batches:        2757
  direct contribution:                  0
  memory contribution:       26163
 
          -----------------
          -S,T+V- integrals
          -----------------

 1e-integrals will be neglected if expon. factor < 0.145688E-13

          ------------------------
          nuclear repulsion energy  :   361.343768725    
          ------------------------


                  -------------------------------------------- 
                 |  HXX+RIRPA total energy     =   -312.67052688018  |
                  --------------------------------------------- 
                 :  RIRPA correlation energy   =     -2.74399749613  :
                 :  HXX total energy           =   -309.92652938404  :
                 :  Hartree energy             =    509.40805153378  :
                 :  Exact Exchange energy      =    -45.71334860882  :
                  ............................................. 


    ------------------------------------------------------------------------
    Rirpa Energy profiling         cpu                    wall         ratio
    ------------------------------------------------------------------------
    module                         sec     %               sec     %
    ------------------------------------------------------------------------
    RIRPA_energy               2482.9  100.00          962.4  100.00   2.6
    riccmos                       4.9    0.20            0.5    0.05   9.9
    riccaux                       3.8    0.15            0.4    0.04  10.0
    riccbound                     6.6    0.26            3.7    0.38   1.8
    ccmkbaoi                    215.9    8.69           21.7    2.25  10.0
    ecrpa                      1469.7   59.19          160.7   16.70   9.1
    tread                       286.7   11.55           28.8    2.99  10.0
    tqbuild                     951.4   38.32          108.5   11.27   8.8
    trpaln                       89.5    3.60            8.9    0.93  10.0
    ehxx                        780.6   31.44          774.9   80.52   1.0
    ------------------------------------------------------------------------
    sum                        6293.3  253.46         2070.9  215.20   3.0
    ------------------------------------------------------------------------

 residuum convergence criterium   :  0.10E-04


 integral neglect threshold       :  0.34E-11
 integral storage threshold THIZE :  0.10E-04
 integral storage threshold THIME :         5


 WARNING : cannot change filename for statistics 
  
           ------------------
           density functional
           ------------------
 PBE functional
 exchange:    LDA + PBE
 correlation: LDA (PW) + PBE
 iterations will be done with small grid
  
 spherical integration : Lebedev's spherical grid
 spherical gridsize    :           5
    i.e. gridpoints    :         590
 value for diffuse not defined
 radial integration    : Chebyshev 2nd kind (scaling 3)
 radial gridsize       :           8
 integration cells     :          20
 partition function    : becke
 partition sharpness   :           3
  
 preparing numerical integration ....
          Overall gridpoints after grid construction =         90218

 Calculating ground state density on molecular grid

 Integral of ground state density: N =   59.99988927316871    



          IRREP   tensor space dimension   number of roots

           a             23100                   1
 number of passes:    1
 
 Number of eigenvalues < 6e-3:            0
 
 
            -----------------------------
            Complex frequency integration
            -----------------------------
 
 Number of Clenshaw-Curtis nodes:          200
 Optimized scaling parameter    :    1.18407576928285     
 Sensitivity measure            :  -7.888589781401834E-011
 
 Contributions to RI integral batches: 
  neglected integral batches:        3080
  direct contribution:              25840
  memory contribution:           0

 maximum number of Davidson iterations set to   25


 logfile dipl_a    exists already

 found      1 converged vectors on dipl_a   
 read       1 vectors from logfile dipl_a   


                    ------------------

                     CPKS equations   

                    ------------------


                       Block Davidson iteration


 total number of roots to be determined:   1


 maximum core memory set to 20000 MB,
 corresponding to     2707 vectors in CAO basis


 maximum number of simultaneously treated vectors (including degeneracy):        1


 Iteration IRREP Converged      Max. Euclidean
                 roots          residual norm

    1       a        0        1.574164885740235D-03
 
    2       a        1        5.398962854106344D-06
 

 converged!


 Switching to fine grid

 preparing numerical integration ....
          Overall gridpoints after grid construction =        296720

 Calculating ground state density on molecular grid

 Integral of ground state density: N =   60.00000090235361    



 Iteration IRREP Converged      Max. Euclidean
                 roots          residual norm

    3       a        0        7.763580881784137D-05
 

 NOTE: Residual norms are larger than 1.00D-05 due to mgrid option!

 Eigenpairs written on logfile dipl_a   



 IRREP   Vector     Frequency            Euclidean residual norm

  a         1    0.000000000000000D+00    7.763580881784137D-05
 

                    -------------------

                     relaxed densities 

                    -------------------

    ----------------------------------------
     S+T+V CONTRIBUTIONS TO ENERGY GRADIENT 
    ----------------------------------------

 1e-integral 1st. derivatives will be neglected if expon. factor < 0.100000E-10


    -----------------------------------------------
     TWO ELECTRON CONTRIBUTIONS TO ENERGY GRADIENT 
    -----------------------------------------------

 setting up bound for integral derivative estimation

 increment for numerical differentiation : 0.00050000

 biggest AO integral is expected to be     3.537514283
 biggest cartesian 1st derivative AO integral is expected to be     7.371354909

 biggest 1-particle AO density matrix element is expected to be    2.0542369008

 core memory to be involved in 2e-gradient :
   symmetry shell pair data              :         1
   two particle density+dens. estimates  :    223401
   derivative integrals                  :   1194671
   ij-primitive data                     :       729
   derivative integral bound             :     86760
   totally                               :   1282158


 setting up bound for integral derivative estimation

 increment for numerical differentiation : 0.00050000

 biggest AO integral is expected to be     3.537514283
 biggest cartesian 1st derivative AO integral is expected to be     7.371354909

 2e-integral 1st. derivatives will be neglected if expon. factor < 0.935762E-20
 outer boundary for 2e-integral derivative neglection is 0.369584E-21

 Integrated ground state density     :   60.00000090235358    


          ------------------------------------------------
           cartesian gradient of the energy (hartree/bohr)
          ------------------------------------------------

  ATOM      1 c           2 c           3 c           4 c           5 c 
dE/dx  0.3330075D-06 -0.2809365D-06  0.6119465D-06 -0.3284476D-06  0.5428897D-06
dE/dy -0.6694079D-06  0.1000653D-05 -0.1907176D-05  0.9176130D-06 -0.3721856D-06
dE/dz  0.1615067D-06  0.3317097D-06 -0.3626919D-07 -0.1326327D-06 -0.1952374D-06

  ATOM      6 c           7 c           8 c           9 h          10 h 
dE/dx  0.3743746D-06 -0.1745236D-05  0.2585980D-06 -0.7772736D-07 -0.2031483D-06
dE/dy  0.5090561D-06  0.2530488D-06  0.4184739D-06  0.1046769D-06  0.1295702D-06
dE/dz -0.4652685D-07  0.2195578D-07 -0.4885920D-08 -0.1655439D-06  0.3999272D-07

  ATOM     11 h          12 h          13 h          14 h          15 h 
dE/dx  0.5167912D-07  0.6381443D-07  0.7205831D-06 -0.4169968D-07  0.6836967D-07
dE/dy -0.1168892D-06 -0.2439444D-06  0.3992075D-06 -0.1909858D-06 -0.2971120D-06
dE/dz -0.1018231D-06  0.4509924D-07 -0.2464570D-07 -0.1637002D-07 -0.6637162D-07

  ATOM     16 h          17 h          18 h          19 h          20 h 
dE/dx -0.2431460D-06 -0.9249688D-07 -0.1593994D-06 -0.2670789D-06  0.4933946D-06
dE/dy  0.1132622D-06  0.5163570D-07 -0.3740645D-06 -0.2304270D-06  0.5485065D-06
dE/dz  0.4895036D-07  0.1463354D-06 -0.2434365D-07  0.2388276D-07 -0.4784465D-08
 
 resulting FORCE  (fx,fy,fz) = (0.793D-07,0.435D-07,-.187D-11)
 resulting MOMENT (mx,my,mz) = (0.826D-08,-.408D-07,-.624D-05)


 **********************************************************************
  |maximum component of gradient| : 0.19071757E-05  (atom  3 c )       
   gradient norm                  : 0.35964992E-05
 **********************************************************************

 exx =      -0.000001 eyy =       0.000001 ezz =       0.000001
 eyz =       0.000000 exz =       0.000000 exy =      -0.000005

   ***  cartesian gradients written onto <gradient>  ***
 
 
 
 ==============================================================================
                           electrostatic moments
 ==============================================================================

 reference point for electrostatic moments:    0.00000   0.00000   0.00000

 
              nuc           gs,e       ->  gs,tot          rpa       ->  total
 ------------------------------------------------------------------------------
                          charge      
 ------------------------------------------------------------------------------
          60.000000     -60.000000       0.000000      -0.000000      -0.000000
 
 ------------------------------------------------------------------------------
                       dipole moment  
 ------------------------------------------------------------------------------
   x     -29.281799      29.695429       0.413630      -0.091004       0.322626
   y       2.631414      -2.720747      -0.089333       0.024605      -0.064728
   z       0.000003      -0.000003       0.000000       0.000000       0.000000
 
   | dipole moment | =     0.3291 a.u. =     0.8364 debye 
 
 ------------------------------------------------------------------------------
                     quadrupole moment
 ------------------------------------------------------------------------------
  xx     706.683356    -744.237808     -37.554452       0.668391     -36.886061
  yy      61.337019     -98.875289     -37.538271       0.144016     -37.394255
  zz     226.367638    -264.397425     -38.029787       0.030628     -37.999159
  xy     -91.224779      90.542612      -0.682167      -0.145605      -0.827773
  xz       0.000123      -0.000123       0.000001      -0.000003      -0.000003
  yz       0.000091      -0.000091      -0.000001       0.000001       0.000000
 
     1/3  trace=     -37.426492
     anisotropy=       1.728352
 
 ==============================================================================
 

    ------------------------------------------------------------------------
    Rirpa profiling                cpu                    wall         ratio
    ------------------------------------------------------------------------
    module                         sec     %               sec     %
    ------------------------------------------------------------------------
    RIRPA                     17439.2  100.00         7597.2  100.00   2.3
    RIRPA_energy               2482.9   14.24          962.4   12.67   2.6
    ccmkbaoi                    215.9    1.24           21.7    0.29  10.0
    ecrpa                      1469.7    8.43          160.7    2.12   9.1
    tread                       286.7    1.64           28.8    0.38  10.0
    tqbuild                     951.4    5.46          108.5    1.43   8.8
    trpaln                       89.5    0.51            8.9    0.12  10.0
    ehxx                        780.6    4.48          774.9   10.20   1.0
    RIRPA_grad                14956.3   85.76         6634.8   87.33   2.3
    SETUP_grad                   28.4    0.16            3.0    0.04   9.3
    rirhs                      8116.2   46.54          838.4   11.04   9.7
    respon                      389.7    2.23           54.5    0.72   7.2
    rparelax                    275.8    1.58           33.2    0.44   8.3
    egdfin                     6036.6   34.62         5694.4   74.95   1.1
    ------------------------------------------------------------------------
    sum                       53535.6  306.98        22926.4  301.77   2.3
    ------------------------------------------------------------------------


    ------------------------------------------------------------------------
         total  cpu-time :  4 hours 50 minutes and 40 seconds
         total wall-time :  2 hours  6 minutes and 37 seconds
    ------------------------------------------------------------------------


   ****  rirpa : all done  ****


    2016-02-02 14:36:42.406 

                                 ****   rirpa : all done  ****
fine, there is no data group "$actual step"
script actual: unknown actual step rirpa
next step = unknown
 energy change  : actual value =  -0.8880E-07 threshold =   0.1000E-06
 geom. gradient : actual value =   0.2876E-05 threshold =   0.1000E-03

CONVERGENCY CRITERIA FULFILLED IN CYCLE 11

