Using Slurm to start processes with PMI2
STARTING ridft ON 8 PROCESSORS!
RUNNING PROGRAM /beegfs/modfac/apps/TURBOMOLE/7.0_intel_GA/bin/em64t-unknown-linux-gnu_mpi/ridft_mpi.
PLEASE WAIT UNTIL ridft HAS FINISHED.
Look for the output in slave1.output.
  this is node-proc. number 1 running on node c-15-38.local
  the total number of node-proc. spawned is            8
  parallel platform: MPP, or cluster with fast interconnect

 ridft (c-15-38.local) : TURBOMOLE V7.0.2( ) 15 Jan 2016 at 17:47:42
 Copyright (C) 2016 TURBOMOLE GmbH, Karlsruhe


    2017-11-08 08:37:18.826 



                                  r i d f t

                        DFT program with RI approximation 
                                for coulomb part 




                                                 
                                 References:     
                                                 
          TURBOMOLE:                             
              R. Ahlrichs, M. Baer, M. Haeser, H. Horn, and
              C. Koelmel
              Electronic structure calculations on workstation
              computers: the program system TURBOMOLE
              Chem. Phys. Lett. 162: 165 (1989)
          Density Functional:                              
              O. Treutler and R. Ahlrichs                      
              Efficient Molecular Numerical Integration Schemes
              J. Chem. Phys. 102: 346 (1995)                   
          Parallel Version:                                
              Performance of parallel TURBOMOLE for Density    
              Functional Calculations                          
              M. v. Arnim and R. Ahlrichs                      
              J. Comp. Chem. 19: 1746 (1998)                   
          RI-J Method:                                     
              Auxiliary Basis Sets to approximate Coulomb      
              Potentials                                       
              Chem. Phys. Lett. 240: 283 (1995)                
              K. Eichkorn, O. Treutler, H. Oehm, M. Haeser     
              and R. Ahlrichs                                  
              Chem. Phys. Lett. 242: 652 (1995)                
                                                           
              Auxiliary Basis Sets for Main Row Atoms and their
              Use to approximate Coulomb Potentials            
              K. Eichkorn, F. Weigend, O. Treutler and         
              R. Ahlrichs                                      
              Theo. Chem. Acc. 97: 119 (1997)                   
                                                           
              Accurate Coulomb-fitting basis sets for H to Rn 
              F. Weigend                                        
              Phys. Chem. Chem. Phys. 8: 1057 (2006)            
                                                           
          Multipole accelerated RI-J (MARI-J):             
              Fast evaluation of the Coulomb potential for     
              electron densities using multipole accelerated   
              resolution of identity approximation             
              M. Sierka, A. Hogekamp and R. Ahlrichs           
              J. Chem. Phys. 118: 9136 (2003)                  
          RI-JK Method:                                     
              A fully direct RI-HF algorithm: Implementation,
              optimised auxiliary basis sets, demonstration of
              accuracy and efficiency                         
              F. Weigend                                      
              Phys. Chem. Chem. Phys. 4: 4285 (2002)           
          Two-component HF and DFT with spin-orbit coupling:  
              Self-consistent treatment of spin-orbit         
              interactions with efficient Hartree-Fock and    
              density functional methods                      
              M. K. Armbruster, F. Weigend, C. van Wüllen and 
              W. Klopper                                      
              Phys. Chem. Chem. Phys. 10: 1748 (2008)         
          Relativistic all-electron 2c calculations           
              An efficient implementation of two-component    
              relativistic exact-decoupling methods for large 
              molecules                                       
              D. Peng, N. Middendorf, F. Weigend, M. Reiher   
              J. Chem. Phys. 138, 184105 (2013)               
                                         


 


              +--------------------------------------------------+
              |      general information about current run       |
              +--------------------------------------------------+

 

 SCF run will be profiled !


 DENSITY CONVERGENCE CHECK SWITCHED ON !
 SCF CONVERGENCE IF RMS(delta[D]) <     0.1000000000E-06

 TPSS meta-GGA functional
 exchange:    LDA + TPSS
 correlation: LDA (PW) + TPSS
 A DFT calculation using the RI-J approximation will be carried out.
 Allocatable memory for RI due to $ricore (MB):       28000


              +--------------------------------------------------+
              | Atomic coordinate, charge and isotop information |
              +--------------------------------------------------+

                    atomic coordinates            atom    charge  isotop
         -0.91146234    1.48014379    6.17950112    c      6.000     0
          1.20108279    2.43962857    7.46188924    c      6.000     0
          2.37267150    4.68247105    6.75800446    c      6.000     0
          1.37088314    6.01960202    4.73404013    c      6.000     0
         -0.77407086    5.21409544    3.40388024    c      6.000     0
         -1.81240519    2.89055240    4.13269059    c      6.000     0
          2.55798739    8.29870296    3.98605803    o      8.000     0
          4.73319623    7.99617661    2.61822547    c      6.000     0
          6.85567924    7.41352103    3.82898847    n      7.000     0
          8.86501616    7.15678637    2.32861569    c      6.000     0
          8.76412682    7.45544436   -0.27591995    c      6.000     0
          6.65687212    8.05084576   -1.51953967    n      7.000     0
          4.63804444    8.32291983   -0.04927796    c      6.000     0
         11.31330154    6.86498199   -1.35388441    c      6.000     0
         12.81912123    6.27969378    0.75298625    n      7.000     0
         11.48120708    6.35435498    3.04818335    c      6.000     0
         15.39847857    5.28403687    0.52727414    c      6.000     0
         15.39203993    2.46588660    0.03008809    c      6.000     0
         15.02246662    0.76576796    2.02198644    c      6.000     0
         14.93292447   -1.82019145    1.56575125    c      6.000     0
         15.20753142   -2.75793008   -0.89377263    c      6.000     0
         15.56941863   -1.06141372   -2.88366573    c      6.000     0
         15.66225838    1.53162338   -2.42374155    c      6.000     0
         12.35414801    5.83381087    5.10652506    o      8.000     0
         12.03208728    6.84413024   -3.53396498    o      8.000     0
          2.38616550    8.96360537   -1.12895656    o      8.000     0
          1.12001917    7.02419010   -2.46453181    c      6.000     0
          1.93744206    6.39298547   -4.87382818    c      6.000     0
          0.61756193    4.52885825   -6.16958294    c      6.000     0
         -1.47139258    3.27273651   -5.12708979    c      6.000     0
         -2.21500005    4.00197762   -2.69656872    c      6.000     0
         -0.98426379    5.89760365   -1.32031489    c      6.000     0
          2.13431885    1.09097529    9.55165657    o      8.000     0
          4.39041146   -0.16362207    9.19722719    c      6.000     0
          6.50316765    1.08851069    9.33267703    n      7.000     0
          8.69576951   -0.25013139    9.01488861    c      6.000     0
          8.62315943   -2.90849413    8.52616054    c      6.000     0
          6.36171059   -4.15973836    8.38777627    n      7.000     0
          4.31811999   -2.83307746    8.72637379    c      6.000     0
         10.90201827   -4.24921710    8.17242215    c      6.000     0
         13.17334249   -2.97833340    8.33083598    c      6.000     0
         13.24461419   -0.35093936    8.81229616    c      6.000     0
         11.04410795    1.00933326    9.13754321    c      6.000     0
          1.99679730   -4.01261082    8.68340610    o      8.000     0
          0.99757204   -4.59177835    6.28987108    c      6.000     0
          2.06760050   -6.53799815    4.88777472    c      6.000     0
          1.00051052   -7.11156087    2.56140819    c      6.000     0
         -1.10400616   -5.83449891    1.58662610    c      6.000     0
         -2.03906904   -3.82525131    3.03710628    c      6.000     0
         -1.07571222   -3.18558366    5.41858849    c      6.000     0
          2.07355211   -9.07865516    1.09527602    o      8.000     0
          4.25574184   -8.44858994   -0.13194244    c      6.000     0
          6.38090362   -8.29099100    1.18852039    n      7.000     0
          8.38914827   -7.60398131   -0.17383906    c      6.000     0
          8.28900023   -7.12409643   -2.75044141    c      6.000     0
          6.17741735   -7.32594321   -4.11704101    n      7.000     0
          4.15567868   -7.98453277   -2.78519540    c      6.000     0
         11.03297287   -7.16558451    0.73255837    c      6.000     0
         12.37365770   -6.41373501   -1.43840681    n      7.000     0
         10.86491625   -6.34387404   -3.62955360    c      6.000     0
         15.01705326   -5.56993716   -1.38703662    c      6.000     0
         -2.04520847   -1.01875118    7.05188455    c      6.000     0
         -4.91574557   -0.95883115    7.66569912    c      6.000     0
         -6.89216243   -0.85474999    5.55606117    c      6.000     0
         -9.62110878   -0.75973499    6.54923206    c      6.000     0
         -2.18705042   -6.66594634   -0.95086442    c      6.000     0
         -5.07962624   -7.20552096   -1.04631330    c      6.000     0
         -6.95157735   -5.25521946   -0.00412982    c      6.000     0
         -9.69027663   -5.68567349   -0.85825963    c      6.000     0
         11.60846035   -5.75962910   -5.71995342    o      8.000     0
          1.89286685   -8.23676178   -3.99812433    o      8.000     0
          0.70472795   -5.93356496   -4.67387733    c      6.000     0
          1.52246167   -4.66007789   -6.81380105    c      6.000     0
          0.33584061   -2.39953144   -7.44173379    c      6.000     0
         -1.60174846   -1.36099322   -5.96290586    c      6.000     0
         -2.31011092   -2.71602206   -3.80491424    c      6.000     0
         -1.26488760   -5.04908877   -3.14692909    c      6.000     0
         11.93334632   -7.37218600    2.83379554    o      8.000     0
          1.10756782   -1.11797551   -9.64232575    o      8.000     0
          3.46063186   -0.00504987   -9.49659888    c      6.000     0
          5.47963455   -1.36334015   -9.85502623    n      7.000     0
          7.76454372   -0.16168580   -9.63185769    c      6.000     0
          7.88313889    2.47073045   -9.02163145    c      6.000     0
          5.71315184    3.84270958   -8.69070897    n      7.000     0
          3.58242531    2.63966205   -8.92949245    c      6.000     0
         10.25430948    3.65277388   -8.71457689    c      6.000     0
         12.43200024    2.25194286   -9.02368459    c      6.000     0
         12.31641085   -0.34637330   -9.62937014    c      6.000     0
         10.02246410   -1.54904324   -9.92690022    c      6.000     0
         -2.73622499    1.19194645   -6.66970842    c      6.000     0
         -5.66789677    1.33036556   -6.84556257    c      6.000     0
         -7.34529617    0.29666992   -4.72012233    c      6.000     0
        -10.17330238    0.78200130   -5.16687296    c      6.000     0
          1.33399898    3.91579241   -8.64868885    o      8.000     0
         -1.81852146    6.84045271    1.26954988    c      6.000     0
         -4.66774890    7.55063061    1.43258465    c      6.000     0
         -6.67649961    5.52333668    1.92479899    c      6.000     0
         -9.39100941    6.51976568    1.64969513    c      6.000     0
          4.03413118    5.35223575    7.74738379    h      1.000     0
         11.05794958    3.03365959    9.45500594    h      1.000     0
         15.05557639    0.60975569    8.91244040    h      1.000     0
         14.93086034   -4.00545579    8.06839406    h      1.000     0
         10.80757946   -6.25225300    7.75324175    h      1.000     0
          3.70407611   -7.55211901    5.58005643    h      1.000     0
         -3.55553956   -2.69428836    2.26621586    h      1.000     0
          3.05443356   -5.38750430   -7.95864853    h      1.000     0
         -3.70818854   -1.89692967   -2.56134579    h      1.000     0
          9.89625391   -3.55348398  -10.32946555    h      1.000     0
         14.05424091   -1.41749205   -9.83776467    h      1.000     0
         14.25857481    3.15527404   -8.78110916    h      1.000     0
         10.30591036    5.63350455   -8.19312361    h      1.000     0
         -3.81292635    3.05519482   -1.83952492    h      1.000     0
          3.55412808    7.31568181   -5.72251364    h      1.000     0
         16.30581670    6.30475457   -1.01996737    h      1.000     0
         16.35057385    5.72524158    2.30502162    h      1.000     0
         14.77655806    1.47850014    3.93037289    h      1.000     0
         14.62445215   -3.12516469    3.11875137    h      1.000     0
         15.74396353   -1.77239756   -4.80142314    h      1.000     0
         15.90968797    2.84456776   -3.98149549    h      1.000     0
         15.83453116   -6.05756932   -3.21799040    h      1.000     0
         15.94876582   -6.65284097    0.10373184    h      1.000     0
         -3.37020430    2.13940540    3.04315176    h      1.000     0
         -1.17723469   -1.34480321    8.89118254    h      1.000     0
         -1.32907066   -8.50712942   -1.29391829    h      1.000     0
         -2.10190945    1.53424465   -8.60038999    h      1.000     0
         -0.85060096    8.64717536    1.47841224    h      1.000     0
         -5.17772409    0.66010251    8.93255968    h      1.000     0
         -5.30195129   -2.65170348    8.80368474    h      1.000     0
         -5.09777521    8.53527202   -0.33789662    h      1.000     0
         -4.84540370    8.96450157    2.94051282    h      1.000     0
         -6.14072829    3.32763429   -7.15333772    h      1.000     0
         -6.18220014    0.33915981   -8.59060222    h      1.000     0
         -5.52316935   -7.56766434   -3.04108015    h      1.000     0
         -5.38712642   -8.99517362   -0.04928588    h      1.000     0
         -6.58883518    0.78553425    4.33191851    h      1.000     0
         -6.71065982   -2.53251221    4.37050911    h      1.000     0
         -6.40826944   -3.33933152   -0.56328751    h      1.000     0
         -6.89345457   -5.30733108    2.06408431    h      1.000     0
         -6.82236103    1.13173993   -2.89610266    h      1.000     0
         -7.06786461   -1.74545389   -4.54550799    h      1.000     0
         -6.45352851    3.90960322    0.64016696    h      1.000     0
         -6.43517913    4.79332705    3.84511414    h      1.000     0
        -10.29387367    1.67248715    7.97584496    c      6.000     0
         -9.95954519   -2.39325743    7.78840658    h      1.000     0
        -10.89788513   -0.98315747    4.93108627    h      1.000     0
         -9.77412798   -5.68612425   -2.93404514    h      1.000     0
        -10.81948545   -4.06536825   -0.22913358    h      1.000     0
        -10.87821675   -8.12866033    0.14848149    c      6.000     0
        -10.48922098    2.80444396   -5.51579284    h      1.000     0
        -11.18721222    0.32234883   -3.41902946    h      1.000     0
        -11.30171379   -0.74778115   -7.35474744    c      6.000     0
        -10.10673095    7.26293207   -1.05934794    c      6.000     0
         -9.66120974    8.15141944    2.90721966    h      1.000     0
        -10.68440952    5.04566617    2.31925694    h      1.000     0
        -13.08723915    1.82784962    8.75747140    c      6.000     0
         -9.11633303    1.82715785    9.67405804    h      1.000     0
         -9.82804458    3.31236565    6.78850822    h      1.000     0
        -12.90498251    7.97377339   -1.38031749    c      6.000     0
         -8.93904791    8.86103099   -1.67322939    h      1.000     0
         -9.65511886    5.68639179   -2.33312989    h      1.000     0
        -14.17716225   -0.43697851   -7.62465641    c      6.000     0
        -10.39619578   -0.18839993   -9.13308872    h      1.000     0
        -10.85739041   -2.75897069   -7.07535658    h      1.000     0
        -13.69464267   -8.40258414   -0.50752697    c      6.000     0
         -9.84692883   -9.76181266   -0.60439641    h      1.000     0
        -10.65174356   -8.19010888    2.21425417    h      1.000     0
        -14.32302802  -10.30579651    0.02340191    h      1.000     0
        -15.39294554   -6.45117298    0.79863782    c      6.000     0
        -13.93123730   -8.26342406   -2.56583618    h      1.000     0
        -13.33596676    3.44341618   10.03327504    h      1.000     0
        -14.91279808    2.10570412    6.52488270    c      6.000     0
        -13.58131956    0.13597290    9.85458433    h      1.000     0
        -13.17154624    8.79316156   -3.26648494    h      1.000     0
        -14.72731429    5.74340561   -1.06148599    c      6.000     0
        -13.38764143    9.46858252   -0.02270647    h      1.000     0
        -14.78296549   -1.33632573   -9.39189418    h      1.000     0
        -15.68693042   -1.57108516   -5.42700496    c      6.000     0
        -14.62954498    1.58084245   -7.81237229    h      1.000     0
        -16.87063137    2.25670706    7.17774242    h      1.000     0
        -14.47797515    3.81247587    5.43363745    h      1.000     0
        -14.80894265    0.48849547    5.23712354    h      1.000     0
        -16.68809687    6.34063483   -1.34640284    h      1.000     0
        -14.31229795    4.25416804   -2.43891242    h      1.000     0
        -14.60045856    4.90752638    0.82676259    h      1.000     0
        -17.72231241   -1.37147232   -5.74222415    h      1.000     0
        -15.27221132   -3.58986274   -5.21490268    h      1.000     0
        -15.24478868   -0.64588273   -3.62955219    h      1.000     0
        -17.38468037   -6.77496623    0.34016103    h      1.000     0
        -15.18854069   -6.56121307    2.85815773    h      1.000     0
        -14.93089985   -4.51906526    0.22044997    h      1.000     0
          7.50692779    0.49846164    2.36346490    c      0.000     0
          8.62078804    0.33290276   -2.00597125    c      0.000     0
          5.95819788   -0.05647426   -3.01401356    c      0.000     0
          4.67770151    0.14224075    2.00197627    c      0.000     0
          3.96939402   -1.75974743   -0.77643697    s      0.000     0
          8.64833883    1.79137476    0.27536561    o      0.000     0
          3.86277564   -0.88265374    3.59788085    h      0.000     0
          6.00096551   -1.22493620   -4.71658316    h      0.000     0
          5.08432889    1.76184990   -3.46516245    h      0.000     0
          3.72100414    1.96827378    1.84572995    h      0.000     0
          8.44060540   -1.33869743    2.63880990    h      0.000     0
          9.54137452   -1.49520974   -1.65532081    h      0.000     0
          9.75438189    1.40172679   -3.36242583    h      0.000     0
          7.87100102    1.69123866    4.01077685    h      0.000     0
 
       center of nuclear mass  :    2.31326308   -0.04084556   -0.06050156
       center of nuclear charge:    1.71952368   -0.03126294   -0.03761957

              +--------------------------------------------------+
              |               basis set information              |
              +--------------------------------------------------+

              we will work with the 1s 3p 5d 7f 9g ... basis set
              ...i.e. with spherical basis functions...

   type   atoms  prim   cont   basis
   ---------------------------------------------------------------------------
    c       92     77     55   cc-pVQZ   [5s4p3d2f1g|21s6p3d2f1g]
    o       13     77     55   cc-pVQZ   [5s4p3d2f1g|21s6p3d2f1g]
    n       10     77     55   cc-pVQZ   [5s4p3d2f1g|21s6p3d2f1g]
    h       88     32     30   cc-pVQZ   [4s3p2d1f|6s3p2d1f]
    s        1    137     59   cc-pVQZ   [6s5p3d2f1g|42s19p3d2f1g]
   ---------------------------------------------------------------------------
   total:  204  11808   9024
   ---------------------------------------------------------------------------

   total number of primitive shells          :  178
   total number of contracted shells         : 2622
   total number of cartesian basis functions :11204
   total number of SCF-basis functions       : 9024


 integral neglect threshold       :  0.30E-14
 integral storage threshold THIZE :  0.10E-04
 integral storage threshold THIME :         5

 RI-J AUXILIARY BASIS SET information:

              we will work with the 1s 3p 5d 7f 9g ... basis set
              ...i.e. with spherical basis functions...

   type   atoms  prim   cont   basis
   ---------------------------------------------------------------------------
    c       92     70     49   cc-pVQZ   [6s4p3d1f1g|12s5p4d2f1g]
    o       13     70     49   cc-pVQZ   [6s4p3d1f1g|12s5p4d2f1g]
    n       10     70     49   cc-pVQZ   [6s4p3d1f1g|12s5p4d2f1g]
    h       88     16     11   cc-pVQZ   [3s1p1d|5s2p1d]
    s        1     77     51   cc-pVQZ   [8s4p3d1f1g|14s5p5d2f1g]
   ---------------------------------------------------------------------------
   total:  204   9535   6654
   ---------------------------------------------------------------------------

   total number of primitive shells          :  107
   total number of contracted shells         : 2182
   total number of cartesian basis functions : 8134
   total number of SCF-basis functions       : 6654


 symmetry group of the molecule :   c1 

 the group has the following generators :
   c1(z)

    1 symmetry operations found

 there are 1 real representations :   a   

 maximum number of shells which are related by symmetry :  1


    mo occupation :
   irrep   mo's   occupied
    a     9024      387
 
 number of basis functions   :         9024
 number of occupied orbitals :          387
 
  
           ------------------
           density functional
           ------------------
 Dummy atoms with grid-point found.
 DFT quadrature threshold dgrenze tightened by factor 1/10.

 TPSS meta-GGA functional
 exchange:    LDA + TPSS
 correlation: LDA (PW) + TPSS
 Dummy atoms with grid-point found.
 DFT quadrature threshold dgrenze tightened by factor 1/10.

 Dummy atoms with grid-point found.
 DFT quadrature threshold dgrenze tightened by factor 1/10.

 grinp -> nfun, dfgga, dfhybrid 
           5 F F
 iterations will be done with small grid
  
 spherical integration : Lebedev's spherical grid
 spherical gridsize    :           5
    i.e. gridpoints    :         590
 value for diffuse not defined
 radial integration    : Chebyshev 2nd kind (scaling 3)
 radial gridsize       :           8
 integration cells     :         204
 partition function    : becke
 partition sharpness   :           3
  
 found dummy atom(s) with basis: included in dft

 <rddim> : input of entry tasksize
           from data group '$pardft' failed !

               Default values taken

 <rddim> : input of entry memdiv
           from data group '$pardft' failed !

               Default values taken
  RIDFT: memory allocation for DFT gridpoints
  MEMORY is divided by 1 as DEFAULT
 Each node can hold at most  the            1 -th part
 of the gridpoints    

 biggest AO integral is expected to be     9.680000706
  
           ------------------------
               RI-J - INFORMATION
           ------------------------
 
 
 **************************************************
 *      MEMORY ALLOCATION FOR PARALLEL RI-DFT     *
 **************************************************
 
 
MEMORY FOR (MU NU/ ALPHA), SEQUENTIAL RUN              27629 MByte
 
            DIFFERENCE IN MEMORY NEED:       DIAG./SLAVE  
 
      TOTAL DIFFERENCE :                   3673 MByte
 
      difference in xcore:                  371 MByte
      difference in fatmat:                1101 MByte
      getcor calls skipped by slaves:      2201 MByte
 
 
           Integral memory available for diagonal.     27629 MByte
 
           Integral memory available for slave             0 MByte
 
         MEMORY FOR (MU NU/ ALPHA) ON DIAGONALIZER     27629 MByte
 
         MEMORY FOR (MU NU/ ALPHA) ON ONE SLAVE            0 MByte
 
         TOTAL MEMORY FOR (MU NU/ ALPHA),ALL NODES     27629 MByte
 
 Contributions to RI integral batches: 
  neglected integral batches:     2572421
  direct contribution:             750090
  memory contribution:      116242
 Memory core needed for (P|Q) and Cholesky    338 MByte
 Memory core minimum needed except of (P|Q)    36 MByte
 Total minimum memory core needed (sum)       374 MByte
     number of direct tasks:         160
  
 ****************************************
 Memory allocated for RI-J 28003 MByte
 ****************************************
                                            

          ------------------------
          nuclear repulsion energy  :   24533.9546571    
          ------------------------

 
          -----------------
          -S integrals
          -----------------

 1e-integrals will be neglected if expon. factor < 0.298283E-15
 
          -----------------
          -T+V integrals
          -----------------

 1e-integrals will be neglected if expon. factor < 0.298283E-15
 Difference densities >>NOT<< switched on in parallel ridft!

 automatic virtual orbital shift switched on 
      shift if e(lumo)-e(homo) < 0.10000000    


 DIIS switched on: error vector is FDS-SDF
 Max. Iterations for DIIS is     :   4
 DIIS matrix (see manual) 
    Scaling factor of diagonals  :  1.200
    threshold for scaling factor :  0.000

 scf convergence criterion : increment of total energy < .1000000D-08
                  and increment of one-electron energy < .1000000D-05


 <geterg> : there is no data group $energy 

  MOs are in ASCII format !


 reading orbital data $scfmo  from file mos . 

 orbital characterization : expanded
 
 mo provided and orthogonalized by Cholesky decomposition

 DSCF restart information will be dumped onto file mos


 Starting SCF iterations


 ITERATION  ENERGY          1e-ENERGY        2e-ENERGY     RMS[dD(SAO)]   TOL
   1  -4836.6983285618    -55353.928645     25983.275659    0.000D+00 0.298D-14
                            Exc = -670.813416273     Coul =  26654.0890757    
                              N = 773.99473654    
                            current damping = 0.700
 
          max. resid. norm for Fia-block=  4.217D-01 for orbital    232a         
          max. resid. fock norm         =  1.239D+01 for orbital   8151a         

 ITERATION  ENERGY          1e-ENERGY        2e-ENERGY     RMS[dD(SAO)]   TOL
   2  -4851.2172611107    -55478.932606     26093.760688    0.552D-02 0.298D-14
                            Exc = -676.625003154     Coul =  26770.3856907    
                              N = 773.99559215    
                            current damping = 0.650
 
          Norm of current diis error:  11.693    
          max. resid. norm for Fia-block=  1.702D-01 for orbital      9a         
          max. resid. fock norm         =  3.510D-01 for orbital   8880a         

 ITERATION  ENERGY          1e-ENERGY        2e-ENERGY     RMS[dD(SAO)]   TOL
   3  -4853.5228890595    -55508.797289     26121.319743    0.197D-02 0.298D-14
                            Exc = -680.615731239     Coul =  26801.9354741    
                              N = 773.99616691    
                            current damping = 0.550
 
          Norm of current diis error:  5.9202    
          max. resid. norm for Fia-block=  6.667D-02 for orbital    382a         
          max. resid. fock norm         =  7.154D-02 for orbital    409a         

 ITERATION  ENERGY          1e-ENERGY        2e-ENERGY     RMS[dD(SAO)]   TOL
   4  -4854.3149103597    -55528.943633     26140.674065    0.747D-03 0.298D-14
                            Exc = -680.813030992     Coul =  26821.4870964    
                              N = 773.99632443    
                            current damping = 0.450
 
          Norm of current diis error:  2.5591    
          max. resid. norm for Fia-block=  5.051D-02 for orbital    122a         
          max. resid. fock norm         =  1.014D-01 for orbital   8610a         

 ITERATION  ENERGY          1e-ENERGY        2e-ENERGY     RMS[dD(SAO)]   TOL
   5  -4854.4186069341    -55532.300612     26143.927348    0.557D-03 0.298D-14
                            Exc = -682.202122542     Coul =  26826.1294702    
                              N = 773.99645494    
                            current damping = 0.350
 
          Norm of current diis error:  1.8391    
          max. resid. norm for Fia-block=  2.844D-02 for orbital    291a         
          max. resid. fock norm         =  3.751D-02 for orbital   8931a         
          mo-orthogonalization: Cholesky decomposition

 ITERATION  ENERGY          1e-ENERGY        2e-ENERGY     RMS[dD(SAO)]   TOL
   6  -4854.4903688988    -55535.856946     26147.411921    0.335D-03 0.298D-14
                            Exc = -682.249860590     Coul =  26829.6617811    
                              N = 773.99649961    
                            current damping = 0.250
 
          Norm of current diis error: 0.83075    
          max. resid. norm for Fia-block=  1.134D-02 for orbital    367a         
          max. resid. fock norm         =  2.096D-02 for orbital   8933a         

 ITERATION  ENERGY          1e-ENERGY        2e-ENERGY     RMS[dD(SAO)]   TOL
   7  -4854.5027162601    -55537.213362     26148.755989    0.162D-03 0.298D-14
                            Exc = -682.114879490     Coul =  26830.8708681    
                              N = 773.99647807    
                            current damping = 0.150
 
          Norm of current diis error: 0.45407    
          max. resid. norm for Fia-block=  4.027D-03 for orbital    367a         
          max. resid. fock norm         =  1.138D-02 for orbital   8940a         
          irrep a   : virtual orbitals shifted by    0.00735

 ITERATION  ENERGY          1e-ENERGY        2e-ENERGY     RMS[dD(SAO)]   TOL
   8  -4854.5058497196    -55535.847908     26147.387401    0.543D-04 0.298D-14
                            Exc = -682.186287200     Coul =  26829.5736886    
                              N = 773.99649062    
                            current damping = 0.200
 
          Norm of current diis error: 0.26538    
          max. resid. norm for Fia-block=  2.352D-03 for orbital    387a         
          max. resid. fock norm         =  5.070D-03 for orbital   8771a         
          irrep a   : virtual orbitals shifted by    0.00234

 ITERATION  ENERGY          1e-ENERGY        2e-ENERGY     RMS[dD(SAO)]   TOL
   9  -4854.5071452978    -55536.370648     26147.908846    0.313D-04 0.298D-14
                            Exc = -682.231215008     Coul =  26830.1400607    
                              N = 773.99649498    
                            current damping = 0.250
 
          Norm of current diis error: 0.14142    
          max. resid. norm for Fia-block=  1.120D-03 for orbital    387a         
          max. resid. fock norm         =  2.163D-03 for orbital   8947a         

 ITERATION  ENERGY          1e-ENERGY        2e-ENERGY     RMS[dD(SAO)]   TOL
  10  -4854.5075206536    -55536.610640     26148.148462    0.107D-04 0.298D-14
                            Exc = -682.201813715     Coul =  26830.3502756    
                              N = 773.99649304    
                            current damping = 0.100
 
          Norm of current diis error: 0.56584E-01
          max. resid. norm for Fia-block=  6.217D-04 for orbital    380a         
          max. resid. fock norm         =  1.052D-03 for orbital   8938a         
          irrep a   : virtual orbitals shifted by    0.01137
          mo-orthogonalization: Cholesky decomposition

 ITERATION  ENERGY          1e-ENERGY        2e-ENERGY     RMS[dD(SAO)]   TOL
  11  -4854.5075639592    -55536.293339     26147.831118    0.745D-05 0.298D-14
                            Exc = -682.202437312     Coul =  26830.0335555    
                              N = 773.99649341    
                            current damping = 0.150
 
          Norm of current diis error: 0.37155E-01
          max. resid. norm for Fia-block=  3.910D-04 for orbital    380a         
          max. resid. fock norm         =  7.866D-04 for orbital   8938a         
          irrep a   : virtual orbitals shifted by    0.00682

 ITERATION  ENERGY          1e-ENERGY        2e-ENERGY     RMS[dD(SAO)]   TOL
  12  -4854.5075928427    -55536.399790     26147.937540    0.431D-05 0.298D-14
                            Exc = -682.205129977     Coul =  26830.1426700    
                              N = 773.99649342    
                            current damping = 0.200
 
          Norm of current diis error: 0.16889E-01
          max. resid. norm for Fia-block=  1.531D-04 for orbital    380a         
          max. resid. fock norm         =  3.754D-04 for orbital   8938a         
          irrep a   : virtual orbitals shifted by    0.00297

 ITERATION  ENERGY          1e-ENERGY        2e-ENERGY     RMS[dD(SAO)]   TOL
  13  -4854.5075975421    -55536.405264     26147.943010    0.163D-05 0.298D-14
                            Exc = -682.203667918     Coul =  26830.1466776    
                              N = 773.99649365    
                            current damping = 0.050
 
          Norm of current diis error: 0.96192E-02
          max. resid. norm for Fia-block=  9.851D-05 for orbital    367a         
          max. resid. fock norm         =  2.010D-04 for orbital   8940a         
          irrep a   : virtual orbitals shifted by    0.01504

 ITERATION  ENERGY          1e-ENERGY        2e-ENERGY     RMS[dD(SAO)]   TOL
  14  -4854.5075991069    -55536.410662     26147.948406    0.864D-06 0.298D-14
                            Exc = -682.203933600     Coul =  26830.1523399    
                              N = 773.99649352    
                            current damping = 0.050
 
          Norm of current diis error: 0.56402E-02
          max. resid. norm for Fia-block=  5.373D-05 for orbital    367a         
          max. resid. fock norm         =  1.445D-04 for orbital   8940a         
          irrep a   : virtual orbitals shifted by    0.01508

 ITERATION  ENERGY          1e-ENERGY        2e-ENERGY     RMS[dD(SAO)]   TOL
  15  -4854.5075996738    -55536.402667     26147.940411    0.504D-06 0.298D-14
                            Exc = -682.204074175     Coul =  26830.1444848    
                              N = 773.99649361    
                            current damping = 0.100
 
          Norm of current diis error: 0.27280E-02
          max. resid. norm for Fia-block=  2.341D-05 for orbital    387a         
          max. resid. fock norm         =  6.451D-05 for orbital   8940a         
          irrep a   : virtual orbitals shifted by    0.01101
          mo-orthogonalization: Cholesky decomposition

 ITERATION  ENERGY          1e-ENERGY        2e-ENERGY     RMS[dD(SAO)]   TOL
  16  -4854.5075997848    -55536.404419     26147.942162    0.255D-06 0.298D-14
                            Exc = -682.204132962     Coul =  26830.1462948    
                              N = 773.99649361    
                            current damping = 0.150
 
          Norm of current diis error: 0.17127E-02
          max. resid. norm for Fia-block=  1.377D-05 for orbital    374a         
          max. resid. fock norm         =  3.005D-05 for orbital   9014a         
          irrep a   : virtual orbitals shifted by    0.00697

 ITERATION  ENERGY          1e-ENERGY        2e-ENERGY     RMS[dD(SAO)]   TOL
  17  -4854.5075998419    -55536.405888     26147.943631    0.129D-06 0.298D-14
                            Exc = -682.203983317     Coul =  26830.1476144    
                              N = 773.99649359    
                            current damping = 0.050
 
          Norm of current diis error: 0.67113E-03
          max. resid. norm for Fia-block=  6.227D-06 for orbital    380a         
          max. resid. fock norm         =  1.297D-05 for orbital   9011a         
          irrep a   : virtual orbitals shifted by    0.01507

 DENSITY CONVERGED !


 ITERATION  ENERGY          1e-ENERGY        2e-ENERGY     RMS[dD(SAO)]   TOL
  18  -4854.5075998476    -55536.403979     26147.941722    0.756D-07 0.298D-14
                            Exc = -682.204039511     Coul =  26830.1457615    
                              N = 773.99649360    
                            current damping = 0.100
 
          Norm of current diis error: 0.47704E-03
          max. resid. norm for Fia-block=  4.469D-06 for orbital    380a         
          max. resid. fock norm         =  8.963D-06 for orbital   8938a         
          irrep a   : virtual orbitals shifted by    0.01102

 DENSITY CONVERGED !


 ITERATION  ENERGY          1e-ENERGY        2e-ENERGY     RMS[dD(SAO)]   TOL
  19  -4854.5075998510    -55536.405096     26147.942839    0.454D-07 0.298D-14
                            Exc = -682.204051268     Coul =  26830.1468904    
                              N = 773.99649360    
                            current damping = 0.150
 
          Norm of current diis error: 0.20238E-03
          max. resid. norm for Fia-block=  2.326D-06 for orbital    380a         
          max. resid. fock norm         =  4.438D-06 for orbital   8938a         
          irrep a   : virtual orbitals shifted by    0.00697

 DENSITY CONVERGED !


 ITERATION  ENERGY          1e-ENERGY        2e-ENERGY     RMS[dD(SAO)]   TOL
  20  -4854.5075998525    -55536.404815     26147.942558    0.277D-07 0.298D-14
                            Exc = -682.204036020     Coul =  26830.1465938    
                              N = 773.99649360    
                            current damping = 0.200
 
          Norm of current diis error: 0.12274E-03
          max. resid. norm for Fia-block=  1.015D-06 for orbital    367a         
          max. resid. fock norm         =  2.068D-06 for orbital   8938a         
          irrep a   : virtual orbitals shifted by    0.00293
          mo-orthogonalization: Cholesky decomposition

 DENSITY CONVERGED !


 ITERATION  ENERGY          1e-ENERGY        2e-ENERGY     RMS[dD(SAO)]   TOL
  21  -4854.5075998527    -55536.404856     26147.942599    0.117D-07 0.298D-14
                            Exc = -682.204035702     Coul =  26830.1466344    
                              N = 773.99649360    
                            current damping = 0.250
 
          Norm of current diis error: 0.60774E-04
          max. resid. norm for Fia-block=  6.796D-07 for orbital    367a         
          max. resid. fock norm         =  1.395D-06 for orbital   8940a         

 DENSITY CONVERGED !


 ITERATION  ENERGY          1e-ENERGY        2e-ENERGY     RMS[dD(SAO)]   TOL
  22  -4854.5075998530    -55536.404905     26147.942648    0.381D-08 0.298D-14
                            Exc = -682.204034567     Coul =  26830.1466823    
                              N = 773.99649360    
                            current damping = 0.100
 
          Norm of current diis error: 0.32622E-04
          max. resid. norm for Fia-block=  2.742D-07 for orbital    367a         
          max. resid. fock norm         =  6.077D-07 for orbital   9014a         
          irrep a   : virtual orbitals shifted by    0.01102

 DENSITY CONVERGED !


 ITERATION  ENERGY          1e-ENERGY        2e-ENERGY     RMS[dD(SAO)]   TOL
  23  -4854.5075998522    -55536.404848     26147.942591    0.296D-08 0.298D-14
                            Exc = -682.204038956     Coul =  26830.1466296    
                              N = 773.99649360    
                            current damping = 0.150
 
          Norm of current diis error: 0.20892E-04
          max. resid. norm for Fia-block=  1.284D-07 for orbital    374a         
          max. resid. fock norm         =  3.295D-07 for orbital   9014a         
          irrep a   : virtual orbitals shifted by    0.00697

 ENERGY & DENSITY CONVERGED !


 ITERATION  ENERGY          1e-ENERGY        2e-ENERGY     RMS[dD(SAO)]   TOL
  24  -4854.5066711615    -55536.404871     26147.943543    0.137D-08 0.298D-14
                            Exc = -682.203109091     Coul =  26830.1466523    
                              N = 774.00014871    
                            current damping = 0.200
 
          Norm of current diis error: 0.85004E-05
          max. resid. norm for Fia-block=  6.446D-08 for orbital    380a         
          max. resid. fock norm         =  1.239D-07 for orbital   8906a         

 End of SCF iterations

   convergence criteria satisfied after   24 iterations


                  ------------------------------------------ 
                 |  total energy      =  -4854.50667116148  |
                  ------------------------------------------ 
                 :  kinetic energy    =   4833.44948693790  :
                 :  potential energy  =  -9687.95615809938  :
                 :  virial theorem    =      1.99566234313  :
                 :  wavefunction norm =      1.00000000000  :
                  .......................................... 


 <geterg> : there is no data group $energy 


 <skperg> : $end is missing 


 orbitals $scfmo  will be written to file mos

    irrep                383a        384a        385a        386a        387a   
 eigenvalues H         -0.22372    -0.22115    -0.21987    -0.21664    -0.21411
            eV          -6.0877     -6.0179     -5.9830     -5.8952     -5.8264
 occupation              2.0000      2.0000      2.0000      2.0000      2.0000 

    irrep                388a        389a        390a        391a        392a   
 eigenvalues H         -0.13322    -0.13285    -0.12095    -0.12024    -0.10272
            eV          -3.6251     -3.6151     -3.2913     -3.2719     -2.7952
 
 
 ! grave: sending quit signal to master process
 
 
 
 
 ==============================================================================
                           electrostatic moments
 ==============================================================================

 reference point for electrostatic moments:    0.00000   0.00000   0.00000

 
              nuc           elec       ->  total
 ------------------------------------------------------------------------------
                          charge      
 ------------------------------------------------------------------------------
         774.000000    -774.000000       0.000000
 
 ------------------------------------------------------------------------------
                       dipole moment  
 ------------------------------------------------------------------------------
   x    1330.911330   -1331.571275      -0.659945
   y     -24.197514      24.194911      -0.002603
   z     -29.117544      29.110389      -0.007156
 
   | dipole moment | =     0.6600 a.u. =     1.6775 debye 
 
 ------------------------------------------------------------------------------
                     quadrupole moment
 ------------------------------------------------------------------------------
  xx   61582.017494  -62012.682275    -430.664781
  yy   20882.405342  -21365.201594    -482.796252
  zz   24445.819454  -24951.829655    -506.010201
  xy    -141.271103     140.616734      -0.654368
  xz    -299.855662     297.190685      -2.664976
  yz     103.668487     -99.917134       3.751353
 
     1/3  trace=    -473.157078
     anisotropy=      67.316891
 
 ==============================================================================
 

    ridft profiling
  --------------------------------------------------------------------
             module   cpu total (s)       %  wall total (s)       %

               RIDFT         94597.1  100.00         95274.4  100.00
         Ridft_b_scf          1683.3    1.78          1685.0    1.77
        b_scf_prelim             0.0    0.00             0.0    0.00
        b_scf_molinp             0.1    0.00             0.1    0.00
         b_scf_init0             0.0    0.00             0.0    0.00
        b_scf_auxbas             0.0    0.00             0.0    0.00
      b_scf_symmetry             0.0    0.00             0.0    0.00
         b_scf_cosmo             0.0    0.00             0.0    0.00
        b_scf_params           150.4    0.16           150.7    0.16
          b_scf_ri-j           344.9    0.36           345.1    0.36
    b_scf_ri-j_auxpq           344.4    0.36           344.6    0.36
     ri-j_auxpq_chol            29.8    0.03            29.9    0.03
         b_scf_1elec            63.5    0.07            63.5    0.07
       b_scf_moinput          1124.4    1.19          1125.6    1.18
     moinput_orthmos          1118.9    1.18          1120.1    1.18
    b_scf_dft-dstmax             0.0    0.00             0.0    0.00
           Ridft_scf         92896.7   98.20         93572.0   98.21
          Scf_b_loop             0.0    0.00             0.0    0.00
                noga             0.0    0.00             0.0    0.00
            Scf_loop         92836.6   98.14         93490.9   98.13
     scf_loop_mkdmat           404.7    0.43           421.2    0.44
       scf_loop_ri-j         15660.4   16.55         15688.2   16.47
      parlp1.bc.dens            71.1    0.08            71.2    0.07
        parlp1.gs.gp            88.6    0.09            88.6    0.09
        parlp2.bc.gq             0.0    0.00             0.0    0.00
        scf_loop_dft         54037.0   57.12         54123.6   56.81
      pardft.bc.dens             0.0    0.00             0.0    0.00
        dft_grid_con            85.4    0.09            85.8    0.09
          dft_xcmrhf         48263.7   51.02         48347.0   50.74
          dft_getval           431.6    0.46           434.2    0.46
          funct2 dst             5.7    0.01             6.0    0.01
      funct2 f2loop1            58.2    0.06            59.4    0.06
      funct2 f2loop2           176.5    0.19           176.9    0.19
          funct2 s+c           184.8    0.20           185.4    0.19
        funct2 cmf_2           171.3    0.18           172.2    0.18
          dft_mkdens         26770.1   28.30         26816.3   28.15
        dft_mgga-fun             5.9    0.01             6.4    0.01
          dft_mkfock         21047.0   22.25         21081.4   22.13
     pardft.red.fock          8754.5    9.25          8762.4    9.20
     scf_loop_energy             3.1    0.00             3.5    0.00
     scf_loop_mkfock             6.1    0.01             6.1    0.01
       scf_loop_diis          8314.1    8.79          8656.0    9.09
       scf_loop_diag         10980.3   11.61         11030.2   11.58
         diag_tritrn          4914.7    5.20          4939.8    5.18
          diag_rdiag          6051.5    6.40          6076.2    6.38
     scf_loop_modump          1271.1    1.34          1399.3    1.47
      scf_loop_ortho          2095.9    2.22          2098.8    2.20
          Scf_a_loop            60.1    0.06            81.1    0.09
         Ridft_a_scf            17.1    0.02            17.4    0.02
         a_scf_fanal            16.5    0.02            16.7    0.02
 


    ------------------------------------------------------------------------
         total  cpu-time :   1 days  2 hours 17 minutes and 55 seconds
         total wall-time :   1 days  2 hours 29 minutes and 13 seconds
    ------------------------------------------------------------------------


   ****  ridft : all done  ****


    2017-11-09 11:06:31.632 

