 operating system is UNIX !

 ridft (c-12-254.gp.local) : TURBOMOLE V7.2 ( 21285 ) 30 Jun 2017 at 11:51:10
 Copyright (C) 2017 TURBOMOLE GmbH, Karlsruhe


    2018-02-07 23:04:17.532 



                                  r i d f t

                        DFT program with RI approximation 
                                for coulomb part 




                                                 
                                 References:     
                                                 
          TURBOMOLE:                             
              R. Ahlrichs, M. Baer, M. Haeser, H. Horn, and
              C. Koelmel
              Electronic structure calculations on workstation
              computers: the program system TURBOMOLE
              Chem. Phys. Lett. 162: 165 (1989)
          Density Functional:                              
              O. Treutler and R. Ahlrichs                      
              Efficient Molecular Numerical Integration Schemes
              J. Chem. Phys. 102: 346 (1995)                   
          Parallel Version:                                
              Performance of parallel TURBOMOLE for Density    
              Functional Calculations                          
              M. v. Arnim and R. Ahlrichs                      
              J. Comp. Chem. 19: 1746 (1998)                   
          RI-J Method:                                     
              Auxiliary Basis Sets to approximate Coulomb      
              Potentials                                       
              Chem. Phys. Lett. 240: 283 (1995)                
              K. Eichkorn, O. Treutler, H. Oehm, M. Haeser     
              and R. Ahlrichs                                  
              Chem. Phys. Lett. 242: 652 (1995)                
                                                           
              Auxiliary Basis Sets for Main Row Atoms and their
              Use to approximate Coulomb Potentials            
              K. Eichkorn, F. Weigend, O. Treutler and         
              R. Ahlrichs                                      
              Theo. Chem. Acc. 97: 119 (1997)                   
                                                           
              Accurate Coulomb-fitting basis sets for H to Rn 
              F. Weigend                                        
              Phys. Chem. Chem. Phys. 8: 1057 (2006)            
                                                           
          Multipole accelerated RI-J (MARI-J):             
              Fast evaluation of the Coulomb potential for     
              electron densities using multipole accelerated   
              resolution of identity approximation             
              M. Sierka, A. Hogekamp and R. Ahlrichs           
              J. Chem. Phys. 118: 9136 (2003)                  
          RI-JK Method:                                     
              A fully direct RI-HF algorithm: Implementation,
              optimised auxiliary basis sets, demonstration of
              accuracy and efficiency                         
              F. Weigend                                      
              Phys. Chem. Chem. Phys. 4: 4285 (2002)           
          Two-component HF and DFT with spin-orbit coupling:  
              Self-consistent treatment of spin-orbit         
              interactions with efficient Hartree-Fock and    
              density functional methods                      
              M. K. Armbruster, F. Weigend, C. van Wüllen and 
              W. Klopper                                      
              Phys. Chem. Chem. Phys. 10: 1748 (2008)         
          Relativistic all-electron 2c calculations           
              An efficient implementation of two-component    
              relativistic exact-decoupling methods for large 
              molecules                                       
              D. Peng, N. Middendorf, F. Weigend, M. Reiher   
              J. Chem. Phys. 138, 184105 (2013)               
                                         




              +--------------------------------------------------+
              |      general information about current run       |
              +--------------------------------------------------+

 

 DENSITY CONVERGENCE CHECK SWITCHED ON !
 SCF CONVERGENCE IF RMS(delta[D]) <     0.1000000000E-06

 PBE functional
 exchange:    LDA + PBE
 correlation: LDA (PW) + PBE
 A DFT calculation using the RI-J approximation will be carried out.
 Allocatable memory for RI due to $ricore (MB):                  5000


              +--------------------------------------------------+
              | Atomic coordinate, charge and isotop information |
              +--------------------------------------------------+

                    atomic coordinates            atom    charge  isotop
         -4.21408928   -0.28723837    4.89628041    c      0.000     0
         -1.79523983   -1.39650761    4.99454617    c      0.000     0
          0.24755412    0.28912810    5.03989960    c      0.000     0
         -2.26011245    3.62260500    4.98698726    c      0.000     0
          1.49477337   -3.70764267    4.95864137    c      0.000     0
         -4.39928244    2.25255355    4.90194959    n      0.000     0
          0.14172946    2.81947139    5.05312768    n      0.000     0
         -0.98265759   -3.88905638    4.94352356    n      0.000     0
          2.35837821   -1.24532952    5.04178932    n      0.000     0
         -6.38349488   -1.67240763    4.84336808    n      0.000     0
         -2.52278439    5.65972977    4.97375918    h      0.000     0
          2.79301522   -5.28367427    4.88305233    h      0.000     0
          4.17440503   -0.66140415    4.90761877    h      0.000     0
         -7.96519565   -0.73321374    4.31802421    h      0.000     0
         -6.25499350   -3.50544198    4.31424476    h      0.000     0
         11.75409655   -2.40373164   -0.19464179    c      6.000     0
         12.01109930    0.16251645   -0.12661165    c      6.000     0
          9.86437041    1.80657818   -0.31180481    c      6.000     0
          7.41339562    0.69163976   -0.57447674    c      6.000     0
          7.14694423   -1.98232271   -0.66329387    c      6.000     0
          9.32390874   -3.57536184   -0.45353427    c      6.000     0
          4.71108725   -3.08214332   -0.90706854    c      6.000     0
          9.01399365   -6.20397089   -0.50077743    c      6.000     0
          6.62537982   -7.32646822   -0.72754456    c      6.000     0
          4.43707696   -5.75043662   -0.94486307    c      6.000     0
          6.28333939  -10.01365878   -0.73699319    c      6.000     0
          3.93440981  -11.06812596   -0.89950964    c      6.000     0
          1.70453297   -9.53744779   -1.06580554    c      6.000     0
          1.98988162   -6.85025723   -1.09415143    c      6.000     0
         -0.17763426   -5.27989482   -1.26233706    c      6.000     0
          0.09637603   -2.60026316   -1.26422678    c      6.000     0
          2.53601247   -1.50233228   -1.12627678    c      6.000     0
          5.24776947    2.26389191   -0.77667744    c      6.000     0
          2.80246386    1.16407130   -1.01856239    c      6.000     0
          0.63305825    2.73443371   -1.15651239    c      6.000     0
         -1.80279873    1.63650283   -1.33414665    c      6.000     0
         -2.07491929   -1.02990074   -1.34926446    c      6.000     0
         -2.62293987   -6.37593597   -1.31902884    c      6.000     0
         -4.79990438   -4.80179410   -1.37005145    c      6.000     0
         -4.52967354   -2.13350080   -1.44375077    c      6.000     0
         -0.72565484  -10.58246634   -1.15840212    c      6.000     0
         -2.89317071   -9.06312653   -1.26044733    c      6.000     0
         -7.27166616   -5.89972499   -1.38894871    c      6.000     0
         -9.39193888   -4.31424476   -1.43241241    c      6.000     0
         -9.16517174   -1.67618708   -1.46642748    c      6.000     0
         -6.70285859   -0.56124866   -1.45130967    c      6.000     0
         -3.98732214    3.21064470   -1.35115419    c      6.000     0
         -6.43073803    2.11082409   -1.44186104    c      6.000     0
         -5.39138866  -10.11003481   -1.29257267    c      6.000     0
         -7.48142576   -8.60014363   -1.34737473    c      6.000     0
         -8.61904089    3.69819404   -1.42863296    c      6.000     0
        -11.06056706    2.52845357   -1.46453775    c      6.000     0
        -11.32323899   -0.03779452   -1.47776584    c      6.000     0
         -8.31101553    6.32680309   -1.36627199    c      6.000     0
         -5.91673252    7.44930042   -1.28123432    c      6.000     0
         -3.71709130    5.87704827   -1.27745487    c      6.000     0
         -1.27367541    6.97686888   -1.09415143    c      6.000     0
          0.90328909    5.41028592   -1.04879800    c      6.000     0
          3.34103580    6.50632708   -0.82203087    c      6.000     0
          5.51044140    4.93218521   -0.65195552    c      6.000     0
          7.97086483    6.02822636   -0.40629112    c      6.000     0
         10.08546837    4.44274614   -0.23810549    c      6.000     0
          8.17306552    8.72864501   -0.31936372    c      6.000     0
          3.59803856    9.19351764   -0.69541922    c      6.000     0
          6.08680787   10.23853619   -0.45920345    c      6.000     0
         -0.99588567    9.66405944   -0.98454732    c      6.000     0
          1.42863296   10.70907800   -0.79557470    c      6.000     0
         -5.58036127   10.13649098   -1.18107883    c      6.000     0
         -3.23143169   11.19284789   -1.04312883    c      6.000     0
         13.40760691   -3.61315637   -0.04535343    h      1.000     0
         13.87058982    1.01100348    0.06991987    h      1.000     0
         10.67317320   -7.40772644   -0.34204043    h      1.000     0
          7.94629839  -11.20985542   -0.59526373    h      1.000     0
          3.71331185  -13.11280964   -0.88817128    h      1.000     0
         -0.93919389  -12.62715002   -1.12249732    h      1.000     0
        -11.26843693   -5.15706262   -1.44186104    h      1.000     0
         -5.59169963  -12.15471849   -1.25855760    h      1.000     0
         -9.35981354   -9.43351286   -1.36060282    h      1.000     0
        -12.72163633    3.73976802   -1.47020693    h      1.000     0
        -13.19406786   -0.88817128   -1.49288364    h      1.000     0
         -9.97964371    7.52866891   -1.35871309    h      1.000     0
         11.95062806    5.28556399   -0.04346370    h      1.000     0
         10.04200467    9.56012451   -0.13228083    h      1.000     0
          6.28144967   12.28321986   -0.37983495    h      1.000     0
          1.63461310   12.75376167   -0.70864730    h      1.000     0
         -7.25276890   11.32890817   -1.20753500    h      1.000     0
         -3.01600291   13.23564183   -0.96187060    h      1.000     0
 
       center of nuclear mass  :    0.02271449   -0.00494145    0.00383207
       center of nuclear charge:    0.35405843    0.06395231   -0.99482477

              +--------------------------------------------------+
              |               basis set information              |
              +--------------------------------------------------+

              we will work with the 1s 3p 5d 7f 9g ... basis set
              ...i.e. with spherical basis functions...

   type   atoms  prim   cont   basis
   ---------------------------------------------------------------------------
    c       59     50     30   cc-pVTZ   [4s3p2d1f|18s5p2d1f]
    n        5     50     30   cc-pVTZ   [4s3p2d1f|18s5p2d1f]
    h       23     16     14   cc-pVTZ   [3s2p1d|5s2p1d]
   ---------------------------------------------------------------------------
   total:   87   3568   2242
   ---------------------------------------------------------------------------

   total number of primitive shells          :   60
   total number of contracted shells         :  778
   total number of cartesian basis functions : 2585
   total number of SCF-basis functions       : 2242


 integral neglect threshold       :  0.13E-13
 integral storage threshold THIZE :  0.10E-04
 integral storage threshold THIME :         5

 RI-J AUXILIARY BASIS SET information:

              we will work with the 1s 3p 5d 7f 9g ... basis set
              ...i.e. with spherical basis functions...

   type   atoms  prim   cont   basis
   ---------------------------------------------------------------------------
    c       59     70     49   cc-pVTZ   [6s4p3d1f1g|12s5p4d2f1g]
    n        5     70     49   cc-pVTZ   [6s4p3d1f1g|12s5p4d2f1g]
    h       23     16     11   cc-pVTZ   [3s1p1d|5s2p1d]
   ---------------------------------------------------------------------------
   total:   87   4848   3389
   ---------------------------------------------------------------------------

   total number of primitive shells          :   56
   total number of contracted shells         : 1075
   total number of cartesian basis functions : 4180
   total number of SCF-basis functions       : 3389


 symmetry group of the molecule :   c1 

 the group has the following generators :
   c1(z)

    1 symmetry operations found

 there are 1 real representations :   a   

 maximum number of shells which are related by symmetry :  1


    mo occupation :
   irrep   mo's   occupied
    a     2242      171
 
 number of basis functions   :                   2242
 number of occupied orbitals :                    171
 
  
           ------------------
           density functional
           ------------------
 Dummy atoms with grid-point found.
 DFT quadrature threshold dgrenze tightened by factor 1/10.

 PBE functional
 exchange:    LDA + PBE
 correlation: LDA (PW) + PBE
 Dummy atoms with grid-point found.
 DFT quadrature threshold dgrenze tightened by factor 1/10.

 Dummy atoms with grid-point found.
 DFT quadrature threshold dgrenze tightened by factor 1/10.


 iterations will be done with small grid
  
 spherical integration : Lebedev's spherical grid
 spherical gridsize    :                     5
    i.e. gridpoints    :                   590
 value for diffuse not defined
 radial integration    : Chebyshev 2nd kind (scaling 3)
 radial gridsize       :                     8
 integration cells     :                    87
 partition function    : becke
 partition sharpness   :                     3
  
 found dummy atom(s) with basis: included in dft

 biggest AO integral is expected to be     4.229423036
  
           ------------------------
               RI-J - INFORMATION
           ------------------------
 Contributions to RI integral batches: 
  neglected integral batches:                158955
  direct contribution:                       101140
  memory contribution:                 42936
 Memory core needed for (P|Q) and Cholesky     88 MByte
 Memory core minimum needed except of (P|Q)     5 MByte
 Total minimum memory core needed (sum)        93 MByte
  
 ****************************************
 Memory allocated for RI-J  4203 MByte
 ****************************************
                                            

          ------------------------
          nuclear repulsion energy  :   6437.57038238    
          ------------------------


         -----------------
         -S,T+V- integrals
         -----------------

 1e-integrals will be neglected if expon. factor < 0.129283E-14
 
   Difference densities algorithm switched on.
   The maximal number of linear combinations of
   difference densities is                    20 .

 DIIS switched on: error vector is FDS-SDF
 Max. Iterations for DIIS is     :   4
 DIIS matrix (see manual) 
    Scaling factor of diagonals  :  1.200
    threshold for scaling factor :  0.000

 scf convergence criterion : increment of total energy < .1000000D-08
                  and increment of one-electron energy < .1000000D-05

  MOs are in ASCII format !


 automatic virtual orbital shift switched on 
      shift if e(lumo)-e(homo) < 0.10000000    


 reading orbital data $scfmo  from file mos
 orbital characterization : expanded
 mo provided and orthogonalized by Cholesky decomposition

 DSCF restart information will be dumped onto file mos


 Starting SCF iterations

          Overall gridpoints after grid construction =        488590

 ITERATION  ENERGY          1e-ENERGY        2e-ENERGY     RMS[dD(SAO)]   TOL
   1  -2061.6891468308    -15532.582444     7033.3229151    0.000D+00 0.129D-13
                            Exc = -291.591247271     Coul =  7324.91416237    
                              N = 342.00022745    
                            current damping = 0.700
 
          max. resid. norm for Fia-block=  2.563D-01 for orbital     36a         
          max. resid. fock norm         =  8.684D+00 for orbital   2028a         

 ITERATION  ENERGY          1e-ENERGY        2e-ENERGY     RMS[dD(SAO)]   TOL
   2  -2065.8438162252    -15587.921735     7084.5075364    0.139D-01 0.126D-13
                            Exc = -295.575129948     Coul =  7380.08266637    
                              N = 342.00029360    
                            current damping = 0.650
 
          Norm of current diis error:  5.8621    
          max. resid. norm for Fia-block=  1.238D-01 for orbital     59a         
          max. resid. fock norm         =  1.431D-01 for orbital     59a         

 ITERATION  ENERGY          1e-ENERGY        2e-ENERGY     RMS[dD(SAO)]   TOL
   3  -2066.7327379135    -15602.013872     7097.7107517    0.210D-02 0.754D-14
                            Exc = -296.687409365     Coul =  7394.39816111    
                              N = 342.00033215    
                            current damping = 0.550
 
          Norm of current diis error:  2.8269    
          max. resid. norm for Fia-block=  6.106D-02 for orbital     59a         
          max. resid. fock norm         =  6.842D-02 for orbital     59a         

 ITERATION  ENERGY          1e-ENERGY        2e-ENERGY     RMS[dD(SAO)]   TOL
   4  -2066.9744838904    -15612.648180     7108.1033134    0.897D-03 0.633D-14
                            Exc = -297.372596292     Coul =  7405.47590969    
                              N = 342.00036436    
                            current damping = 0.450
 
          Norm of current diis error:  1.1064    
          max. resid. norm for Fia-block=  2.442D-02 for orbital     60a         
          max. resid. fock norm         =  2.804D-02 for orbital     60a         

 ITERATION  ENERGY          1e-ENERGY        2e-ENERGY     RMS[dD(SAO)]   TOL
   5  -2067.0129292864    -15615.680088     7111.0967767    0.556D-03 0.553D-14
                            Exc = -297.646223072     Coul =  7408.74299977    
                              N = 342.00037523    
                            current damping = 0.350
 
          Norm of current diis error: 0.48059    
          max. resid. norm for Fia-block=  8.556D-03 for orbital     62a         
          max. resid. fock norm         =  1.663D-02 for orbital     60a         
          mo-orthogonalization: Cholesky decomposition

 ITERATION  ENERGY          1e-ENERGY        2e-ENERGY     RMS[dD(SAO)]   TOL
   6  -2067.0168815574    -15617.626121     7113.0388571    0.340D-03 0.517D-14
                            Exc = -297.782168697     Coul =  7410.82102584    
                              N = 342.00038419    
                            current damping = 0.250
 
          Norm of current diis error: 0.35529    
          max. resid. norm for Fia-block=  4.981D-03 for orbital    164a         
          max. resid. fock norm         =  9.752D-03 for orbital     60a         
          irrep a   : virtual orbitals shifted by    0.00923

 ITERATION  ENERGY          1e-ENERGY        2e-ENERGY     RMS[dD(SAO)]   TOL
   7  -2067.0208963818    -15618.505176     7113.9138974    0.176D-03 0.506D-14
                            Exc = -297.796238740     Coul =  7411.71013612    
                              N = 342.00038386    
                            current damping = 0.150
 
          Norm of current diis error: 0.12010    
          max. resid. norm for Fia-block=  2.228D-03 for orbital    163a         
          max. resid. fock norm         =  4.945D-03 for orbital    131a         
          irrep a   : virtual orbitals shifted by    0.01879

 ITERATION  ENERGY          1e-ENERGY        2e-ENERGY     RMS[dD(SAO)]   TOL
   8  -2067.0208604505    -15617.155303     7112.5640601    0.154D-03 0.494D-14
                            Exc = -297.793741456     Coul =  7410.35780153    
                              N = 342.00038411    
                            current damping = 0.200
 
          Norm of current diis error: 0.12322    
          max. resid. norm for Fia-block=  9.243D-04 for orbital    170a         
          max. resid. fock norm         =  1.909D-03 for orbital   2207a         
          irrep a   : virtual orbitals shifted by    0.01560

 ITERATION  ENERGY          1e-ENERGY        2e-ENERGY     RMS[dD(SAO)]   TOL
   9  -2067.0214212976    -15617.749408     7113.1576040    0.548D-04 0.497D-14
                            Exc = -297.795322656     Coul =  7410.95292668    
                              N = 342.00038433    
                            current damping = 0.250
 
          Norm of current diis error: 0.40322E-01
          max. resid. norm for Fia-block=  4.591D-04 for orbital    165a         
          max. resid. fock norm         =  1.018D-03 for orbital     15a         
          irrep a   : virtual orbitals shifted by    0.01214

 ITERATION  ENERGY          1e-ENERGY        2e-ENERGY     RMS[dD(SAO)]   TOL
  10  -2067.0214750777    -15617.883736     7113.2918786    0.195D-04 0.496D-14
                            Exc = -297.798054102     Coul =  7411.08993275    
                              N = 342.00038434    
                            current damping = 0.100
 
          Norm of current diis error: 0.16379E-01
          max. resid. norm for Fia-block=  2.477D-04 for orbital    168a         
          max. resid. fock norm         =  6.321D-04 for orbital     18a         
          irrep a   : virtual orbitals shifted by    0.02269
          mo-orthogonalization: Cholesky decomposition

 ITERATION  ENERGY          1e-ENERGY        2e-ENERGY     RMS[dD(SAO)]   TOL
  11  -2067.0214815379    -15617.987578     7113.3957138    0.106D-04 0.493D-14
                            Exc = -297.797052877     Coul =  7411.19276664    
                              N = 342.00038436    
                            current damping = 0.050
 
          Norm of current diis error: 0.98306E-02
          max. resid. norm for Fia-block=  9.638D-05 for orbital    168a         
          max. resid. fock norm         =  2.160D-04 for orbital   2197a         
          irrep a   : virtual orbitals shifted by    0.02620

 ITERATION  ENERGY          1e-ENERGY        2e-ENERGY     RMS[dD(SAO)]   TOL
  12  -2067.0214851441    -15617.926828     7113.3349602    0.679D-05 0.491D-14
                            Exc = -297.796875128     Coul =  7411.13183538    
                              N = 342.00038438    
                            current damping = 0.100
 
          Norm of current diis error: 0.26088E-02
          max. resid. norm for Fia-block=  4.754D-05 for orbital    167a         
          max. resid. fock norm         =  8.990D-05 for orbital   2222a         
          irrep a   : virtual orbitals shifted by    0.02269

 ITERATION  ENERGY          1e-ENERGY        2e-ENERGY     RMS[dD(SAO)]   TOL
  13  -2067.0214852210    -15617.931347     7113.3394790    0.125D-05 0.488D-14
                            Exc = -297.797056568     Coul =  7411.13653561    
                              N = 342.00038436    
                            current damping = 0.150
 
          Norm of current diis error: 0.21652E-02
          max. resid. norm for Fia-block=  2.233D-05 for orbital    167a         
          max. resid. fock norm         =  4.377D-05 for orbital   2213a         
          irrep a   : virtual orbitals shifted by    0.01918

 ITERATION  ENERGY          1e-ENERGY        2e-ENERGY     RMS[dD(SAO)]   TOL
  14  -2067.0214853825    -15617.934035     7113.3421677    0.515D-06 0.488D-14
                            Exc = -297.797122344     Coul =  7411.13929004    
                              N = 342.00038437    
                            current damping = 0.050
 
          Norm of current diis error: 0.45778E-03
          max. resid. norm for Fia-block=  8.553D-06 for orbital    171a         
          max. resid. fock norm         =  1.585D-05 for orbital   2204a         
          irrep a   : virtual orbitals shifted by    0.02620

 ITERATION  ENERGY          1e-ENERGY        2e-ENERGY     RMS[dD(SAO)]   TOL
  15  -2067.0214853770    -15617.931441     7113.3395737    0.412D-06 0.482D-14
                            Exc = -297.797033039     Coul =  7411.13660671    
                              N = 342.00038437    
                            current damping = 0.100
 
          Norm of current diis error: 0.58043E-03
          max. resid. norm for Fia-block=  4.353D-06 for orbital    171a         
          max. resid. fock norm         =  9.890D-06 for orbital     48a         
          irrep a   : virtual orbitals shifted by    0.02269
          mo-orthogonalization: Cholesky decomposition

 ITERATION  ENERGY          1e-ENERGY        2e-ENERGY     RMS[dD(SAO)]   TOL
  16  -2067.0214853894    -15617.932131     7113.3402635    0.187D-06 0.485D-14
                            Exc = -297.797029767     Coul =  7411.13729327    
                              N = 342.00038437    
                            current damping = 0.150
 
          Norm of current diis error: 0.17502E-03
          max. resid. norm for Fia-block=  2.231D-06 for orbital    169a         
          max. resid. fock norm         =  5.210D-06 for orbital   2203a         
          irrep a   : virtual orbitals shifted by    0.01918

 ITERATION  ENERGY          1e-ENERGY        2e-ENERGY     RMS[dD(SAO)]   TOL
  17  -2067.0214853897    -15617.931850     7113.3399821    0.110D-06 0.484D-14
                            Exc = -297.797053766     Coul =  7411.13703585    
                              N = 342.00038437    
                            current damping = 0.200
 
          Norm of current diis error: 0.11847E-03
          max. resid. norm for Fia-block=  1.485D-06 for orbital    169a         
          max. resid. fock norm         =  3.318D-06 for orbital    108a         
          irrep a   : virtual orbitals shifted by    0.01566

 DENSITY CONVERGED !


 ITERATION  ENERGY          1e-ENERGY        2e-ENERGY     RMS[dD(SAO)]   TOL
  18  -2067.0214853903    -15617.932764     7113.3408962    0.947D-07 0.482D-14
                            Exc = -297.797060324     Coul =  7411.13795655    
                              N = 342.00038437    
                            current damping = 0.250
 
          Norm of current diis error: 0.42788E-04
          max. resid. norm for Fia-block=  7.037D-07 for orbital    163a         
          max. resid. fock norm         =  1.336D-06 for orbital    134a         
          irrep a   : virtual orbitals shifted by    0.01215

 DENSITY CONVERGED !


 ITERATION  ENERGY          1e-ENERGY        2e-ENERGY     RMS[dD(SAO)]   TOL
  19  -2067.0214853905    -15617.932358     7113.3404905    0.402D-07 0.478D-14
                            Exc = -297.797056403     Coul =  7411.13754687    
                              N = 342.00038437    
                            current damping = 0.300
 
          Norm of current diis error: 0.27970E-04
          max. resid. norm for Fia-block=  3.716D-07 for orbital    167a         
          max. resid. fock norm         =  6.434D-07 for orbital   2211a         
          irrep a   : virtual orbitals shifted by    0.00863

 DENSITY CONVERGED !


 ITERATION  ENERGY          1e-ENERGY        2e-ENERGY     RMS[dD(SAO)]   TOL
  20  -2067.0214853903    -15617.932414     7113.3405461    0.912D-08 0.474D-14
                            Exc = -297.797055821     Coul =  7411.13760188    
                              N = 342.00038437    
                            current damping = 0.350
 
          Norm of current diis error: 0.47505E-05
          max. resid. norm for Fia-block=  8.673D-08 for orbital    165a         
          max. resid. fock norm         =  1.759D-07 for orbital     13a         
          irrep a   : virtual orbitals shifted by    0.00512
          mo-orthogonalization: Cholesky decomposition

 ENERGY & DENSITY CONVERGED !

          Overall gridpoints after grid construction =       1389829

 ITERATION  ENERGY          1e-ENERGY        2e-ENERGY     RMS[dD(SAO)]   TOL
  21  -2067.0211994269    -15617.932428     7113.3408460    0.309D-08 0.469D-14
                            Exc = -297.796769987     Coul =  7411.13761596    
                              N = 342.00010805    
                            current damping = 0.200
 
          Norm of current diis error: 0.35185E-05
          max. resid. norm for Fia-block=  3.589D-08 for orbital    168a         
          max. resid. fock norm         =  7.676D-08 for orbital     13a         

 End of SCF iterations

   convergence criteria satisfied after   21 iterations


                  ------------------------------------------ 
                 |  total energy      =  -2067.02119942688  |
                  ------------------------------------------ 
                 :  kinetic energy    =   2053.89626854567  :
                 :  potential energy  =  -4120.91746797254  :
                 :  virial theorem    =      1.99365031627  :
                 :  wavefunction norm =      1.00000000000  :
                  .......................................... 


 <geterg> : there is no data group $energy 


 orbitals $scfmo  will be written to file mos

    irrep                167a        168a        169a        170a        171a   
 eigenvalues H         -0.20822    -0.20403    -0.20394    -0.17555    -0.17542
            eV          -5.6659     -5.5519     -5.5496     -4.7769     -4.7735
 occupation              2.0000      2.0000      2.0000      2.0000      2.0000 

    irrep                172a        173a        174a        175a        176a   
 eigenvalues H         -0.10514    -0.10504    -0.07961    -0.07954    -0.07045
            eV          -2.8611     -2.8583     -2.1664     -2.1644     -1.9172
 
 
 
 
 ==============================================================================
                           electrostatic moments
 ==============================================================================

 reference point for electrostatic moments:    0.00000   0.00000   0.00000

 
              nuc           elec       ->  total
 ------------------------------------------------------------------------------
                          charge      
 ------------------------------------------------------------------------------
         342.000000    -342.000000      -0.000000
 
 ------------------------------------------------------------------------------
                       dipole moment  
 ------------------------------------------------------------------------------
   x     121.087981    -121.097150      -0.009168
   y      21.871690     -21.872741      -0.001051
   z    -340.230072     340.349650       0.119578
 
   | dipole moment | =     0.1199 a.u. =     0.3048 debye 
 
 ------------------------------------------------------------------------------
                     quadrupole moment
 ------------------------------------------------------------------------------
  xx   14411.043170  -14603.260849    -192.217679
  yy   14428.680548  -14620.688786    -192.008238
  zz     393.037426    -625.059583    -232.022157
  xy      -6.211821       6.183249      -0.028572
  xz     704.983990    -702.774795       2.209195
  yz     134.407700    -134.059185       0.348515
 
     1/3  trace=    -205.416024
     anisotropy=      40.097201
 
 ==============================================================================
 


    ------------------------------------------------------------------------
         total  cpu-time :  1 hours 36 minutes and  1 seconds
         total wall-time :  1 hours 41 minutes and 10 seconds
    ------------------------------------------------------------------------

   ****  ridft : all done  ****


    2018-02-08 00:45:27.444 

