
 eiger (gplogin1.local) : TURBOMOLE V7.2 ( 21285 ) 30 Jun 2017 at 11:51:10
 Copyright (C) 2017 TURBOMOLE GmbH, Karlsruhe


    2017-11-10 01:13:40.452 

                                                                                
  
 HOMO-LUMO Separation
   HOMO:    80.    80 a     -0.26133162 H =     -7.11120 eV
   LUMO:    81.    81 a     -0.17627775 H =     -4.79676 eV
   Gap :                    +0.08505387 H =     +2.31443 eV
 
Number of MOs=   1461, Electrons=    160.00, Symmetry: c1   
 
   Nr.   Orbital    Occupation       Energy
   97.    97 a                     +0.054116 H =        +1.473 eV
   96.    96 a                     +0.053437 H =        +1.454 eV
   95.    95 a                     +0.048130 H =        +1.310 eV
   94.    94 a                     +0.044011 H =        +1.198 eV
   93.    93 a                     +0.031479 H =        +0.857 eV
   92.    92 a                     +0.023383 H =        +0.636 eV
   91.    91 a                     +0.014264 H =        +0.388 eV
   90.    90 a                     +0.009038 H =        +0.246 eV
   89.    89 a                     -0.002642 H =        -0.072 eV
   88.    88 a                     -0.020342 H =        -0.554 eV
   87.    87 a                     -0.044816 H =        -1.219 eV
   86.    86 a                     -0.086242 H =        -2.347 eV
   85.    85 a                     -0.091811 H =        -2.498 eV
   84.    84 a                     -0.140301 H =        -3.818 eV
   83.    83 a                     -0.146539 H =        -3.988 eV
   82.    82 a                     -0.161608 H =        -4.398 eV
   81.    81 a                     -0.176278 H =        -4.797 eV
   80.    80 a        2.000        -0.261332 H =        -7.111 eV
   79.    79 a        2.000        -0.274503 H =        -7.470 eV
   78.    78 a        2.000        -0.274913 H =        -7.481 eV
   77.    77 a        2.000        -0.281783 H =        -7.668 eV
   76.    76 a        2.000        -0.285639 H =        -7.773 eV
   75.    75 a        2.000        -0.291305 H =        -7.927 eV
   74.    74 a        2.000        -0.291513 H =        -7.932 eV
   73.    73 a        2.000        -0.296905 H =        -8.079 eV
   72.    72 a        2.000        -0.305455 H =        -8.312 eV
   71.    71 a        2.000        -0.308042 H =        -8.382 eV
   70.    70 a        2.000        -0.309221 H =        -8.414 eV
   69.    69 a        2.000        -0.316715 H =        -8.618 eV
   68.    68 a        2.000        -0.320373 H =        -8.718 eV
   67.    67 a        2.000        -0.333062 H =        -9.063 eV
   66.    66 a        2.000        -0.371505 H =       -10.109 eV
   65.    65 a        2.000        -0.385648 H =       -10.494 eV


    ------------------------------------------------------------------------
         total  cpu-time :   1.56 seconds
         total wall-time :   1.66 seconds
    ------------------------------------------------------------------------

   ****  eiger : all done  ****


    2017-11-10 01:13:42.096 

