Using OpenMPI from /sopt/mpi/openmpi-1.8.6/intel_15.0.3/bin/mpiexec
STARTING ridft ON 8 PROCESSORS!
RUNNING PROGRAM /beegfs/modfac/apps/TURBOMOLE/7.0_intel/bin/em64t-unknown-linux-gnu_mpi/ridft_mpi.
PLEASE WAIT UNTIL ridft HAS FINISHED.
Look for the output in slave1.output.
  this is node-proc. number 1 running on node c-15-34.local
  the total number of node-proc. spawned is            7
  parallel platform: MPP, or cluster with fast interconnect

 ridft (c-15-34.local) : TURBOMOLE V7.0( ) 6 Jul 2015 at 19:34:44
 Copyright (C) 2015 TURBOMOLE GmbH, Karlsruhe


    2017-11-01 17:14:50.235 



                                  r i d f t

                        DFT program with RI approximation 
                                for coulomb part 




                                                 
                                 References:     
                                                 
          TURBOMOLE:                             
              R. Ahlrichs, M. Baer, M. Haeser, H. Horn, and
              C. Koelmel
              Electronic structure calculations on workstation
              computers: the program system TURBOMOLE
              Chem. Phys. Lett. 162: 165 (1989)
          Density Functional:                              
              O. Treutler and R. Ahlrichs                      
              Efficient Molecular Numerical Integration Schemes
              J. Chem. Phys. 102: 346 (1995)                   
          Parallel Version:                                
              Performance of parallel TURBOMOLE for Density    
              Functional Calculations                          
              M. v. Arnim and R. Ahlrichs                      
              J. Comp. Chem. 19: 1746 (1998)                   
          RI-J Method:                                     
              Auxiliary Basis Sets to approximate Coulomb      
              Potentials                                       
              Chem. Phys. Lett. 240: 283 (1995)                
              K. Eichkorn, O. Treutler, H. Oehm, M. Haeser     
              and R. Ahlrichs                                  
              Chem. Phys. Lett. 242: 652 (1995)                
                                                           
              Auxiliary Basis Sets for Main Row Atoms and their
              Use to approximate Coulomb Potentials            
              K. Eichkorn, F. Weigend, O. Treutler and         
              R. Ahlrichs                                      
              Theo. Chem. Acc. 97: 119 (1997)                   
                                                           
              Accurate Coulomb-fitting basis sets for H to Rn 
              F. Weigend                                        
              Phys. Chem. Chem. Phys. 8: 1057 (2006)            
                                                           
          Multipole accelerated RI-J (MARI-J):             
              Fast evaluation of the Coulomb potential for     
              electron densities using multipole accelerated   
              resolution of identity approximation             
              M. Sierka, A. Hogekamp and R. Ahlrichs           
              J. Chem. Phys. 118: 9136 (2003)                  
          RI-JK Method:                                     
              A fully direct RI-HF algorithm: Implementation,
              optimised auxiliary basis sets, demonstration of
              accuracy and efficiency                         
              F. Weigend                                      
              Phys. Chem. Chem. Phys. 4: 4285 (2002)           
          Two-component HF and DFT with spin-orbit coupling:  
              Self-consistent treatment of spin-orbit         
              interactions with efficient Hartree-Fock and    
              density functional methods                      
              M. K. Armbruster, F. Weigend, C. van Wüllen and 
              W. Klopper                                      
              Phys. Chem. Chem. Phys. 10: 1748 (2008)         
          Relativistic all-electron 2c calculations           
              An efficient implementation of two-component    
              relativistic exact-decoupling methods for large 
              molecules                                       
              D. Peng, N. Middendorf, F. Weigend, M. Reiher   
              J. Chem. Phys. 138, 184105 (2013)               
                                         


 


              +--------------------------------------------------+
              |      general information about current run       |
              +--------------------------------------------------+

 

 SCF run will be profiled !


 DENSITY CONVERGENCE CHECK SWITCHED ON !
 SCF CONVERGENCE IF RMS(delta[D]) <     0.1000000000E-06

 TPSS meta-GGA functional
 exchange:    LDA + TPSS
 correlation: LDA (PW) + TPSS
 A DFT calculation using the RI-J approximation will be carried out.
 Allocatable memory for RI due to $ricore (MB):       10000


              +--------------------------------------------------+
              | Atomic coordinate, charge and isotop information |
              +--------------------------------------------------+

                    atomic coordinates            atom    charge  isotop
          1.54719462    1.71757654    1.66555349    c      6.000     0
         -2.63351196    1.69686384    0.07163914    c      6.000     0
          1.18861571   -0.54996825    0.28890012    c      6.000     0
         -1.42727715   -0.54817147   -0.74095728    c      6.000     0
          3.27366900   -2.16340348    0.10104542    c      6.000     0
          5.81576688    0.69742007    2.53401701    c      6.000     0
         -6.34181871    0.57128841   -2.14831436    c      6.000     0
          5.59763044   -1.53662064    1.18145029    c      6.000     0
         -0.85465563    3.22098460    1.63371602    c      6.000     0
         -5.09075719    2.29301967   -0.59715603    c      6.000     0
          3.80021588    2.37353091    2.81270485    c      6.000     0
         -5.20783663   -1.64263827   -3.00799547    c      6.000     0
         -2.73004967   -2.22630755   -2.30332935    c      6.000     0
          3.17989462   -4.63945688   -1.19946085    n      7.000     0
          8.28444295    1.31316429    3.71016234    n      7.000     0
         -8.98037433    1.12112837   -2.92161404    n      7.000     0
          1.20336677   -5.86144996   -1.02192163    o      8.000     0
          5.10115102   -5.32385741   -2.31235090    o      8.000     0
          8.42496142    3.32640369    4.86890675    o      8.000     0
         -9.93488931    3.08634069   -2.11658740    o      8.000     0
         10.00966540   -0.22638470    3.44409661    o      8.000     0
        -10.03345106   -0.42116704   -4.31341367    o      8.000     0
         -1.23311442    5.24258805    2.66042261    o      8.000     0
         -1.88200223   -3.96628913   -2.95640597    h      1.000     0
          7.20527260   -2.78695597    0.97888817    h      1.000     0
         -6.28296752   -2.89783528   -4.21741311    h      1.000     0
          4.00600067    4.11716410    3.86889712    h      1.000     0
         -6.00514218    4.01303281    0.03652010    h      1.000     0
 
       center of nuclear mass  :    0.16377723    0.03688449    0.09262142
       center of nuclear charge:    0.15220960    0.03152625    0.08409350

              +--------------------------------------------------+
              |               basis set information              |
              +--------------------------------------------------+

              we will work with the 1s 3p 5d 7f 9g ... basis set
              ...i.e. with spherical basis functions...

   type   atoms  prim   cont   basis
   ---------------------------------------------------------------------------
    c       13     77     57   def2-QZVP   [7s4p3d2f1g|15s8p3d2f1g]
    n        3     77     57   def2-QZVP   [7s4p3d2f1g|15s8p3d2f1g]
    o        7     77     57   def2-QZVP   [7s4p3d2f1g|15s8p3d2f1g]
    h        5     33     30   def2-QZVP   [4s3p2d1f|7s3p2d1f]
   ---------------------------------------------------------------------------
   total:   28   1936   1461
   ---------------------------------------------------------------------------

   total number of primitive shells          :  100
   total number of contracted shells         :  441
   total number of cartesian basis functions : 1831
   total number of SCF-basis functions       : 1461


 integral neglect threshold       :  0.18E-13
 integral storage threshold THIZE :  0.10E-04
 integral storage threshold THIME :         5

 RI-J AUXILIARY BASIS SET information:

              we will work with the 1s 3p 5d 7f 9g ... basis set
              ...i.e. with spherical basis functions...

   type   atoms  prim   cont   basis
   ---------------------------------------------------------------------------
    c       13     70     49   def2-QZVP   [6s4p3d1f1g|12s5p4d2f1g]
    n        3     70     49   def2-QZVP   [6s4p3d1f1g|12s5p4d2f1g]
    o        7     70     49   def2-QZVP   [6s4p3d1f1g|12s5p4d2f1g]
    h        5     16     11   def2-QZVP   [3s1p1d|5s2p1d]
   ---------------------------------------------------------------------------
   total:   28   1690   1182
   ---------------------------------------------------------------------------

   total number of primitive shells          :   80
   total number of contracted shells         :  370
   total number of cartesian basis functions : 1463
   total number of SCF-basis functions       : 1182


 symmetry group of the molecule :   c1 

 the group has the following generators :
   c1(z)

    1 symmetry operations found

 there are 1 real representations :   a   

 maximum number of shells which are related by symmetry :  1


    mo occupation :
   irrep   mo's   occupied
    a     1461       80
 
 number of basis functions   :         1461
 number of occupied orbitals :           80
 
  
           ------------------
           density functional
           ------------------
 TPSS meta-GGA functional
 exchange:    LDA + TPSS
 correlation: LDA (PW) + TPSS
 grinp -> nfun, dfgga, dfhybrid 
           5 F F
 iterations will be done with small grid
  
 spherical integration : Lebedev's spherical grid
 spherical gridsize    :           5
    i.e. gridpoints    :         590
 value for diffuse not defined
 radial integration    : Chebyshev 2nd kind (scaling 3)
 radial gridsize       :           8
 integration cells     :          28
 partition function    : becke
 partition sharpness   :           3
  

 <rddim> : input of entry tasksize
           from data group '$pardft' failed !

               Default values taken

 <rddim> : input of entry memdiv
           from data group '$pardft' failed !

               Default values taken
  RIDFT: memory allocation for DFT gridpoints
  MEMORY is divided by 1 as DEFAULT
 Each node can hold at most  the            1 -th part
 of the gridpoints    

 biggest AO integral is expected to be     6.990327543
  
           ------------------------
               RI-J - INFORMATION
           ------------------------
 
 
 **************************************************
 *      MEMORY ALLOCATION FOR PARALLEL RI-DFT     *
 **************************************************
 
 
MEMORY FOR (MU NU/ ALPHA), SEQUENTIAL RUN               9989 MByte
 
            DIFFERENCE IN MEMORY NEED:       DIAG./SLAVE  
 
      TOTAL DIFFERENCE :                     99 MByte
 
      difference in xcore:                   12 MByte
      difference in fatmat:                  29 MByte
      getcor calls skipped by slaves:        59 MByte
 
 
           Integral memory available for diagonal.      9989 MByte
 
           Integral memory available for slave             0 MByte
 
         MEMORY FOR (MU NU/ ALPHA) ON DIAGONALIZER      9989 MByte
 
         MEMORY FOR (MU NU/ ALPHA) ON ONE SLAVE            0 MByte
 
         TOTAL MEMORY FOR (MU NU/ ALPHA),ALL NODES      9989 MByte
 
 Contributions to RI integral batches: 
  neglected integral batches:       42108
  direct contribution:               2957
  memory contribution:       52396
 Memory core needed for (P|Q) and Cholesky     11 MByte
 Memory core minimum needed except of (P|Q)     8 MByte
 Total minimum memory core needed (sum)        19 MByte
     number of direct tasks:         140
  
 ****************************************
 Memory allocated for RI-J 10007 MByte
 ****************************************
                                            

          ------------------------
          nuclear repulsion energy  :   1796.39272409    
          ------------------------

 
          -----------------
          -S integrals
          -----------------

 1e-integrals will be neglected if expon. factor < 0.182521E-14
 
          -----------------
          -T+V integrals
          -----------------

 1e-integrals will be neglected if expon. factor < 0.182521E-14
 Difference densities >>NOT<< switched on in parallel ridft!

 automatic virtual orbital shift switched on 
      shift if e(lumo)-e(homo) < 0.10000000    


 DIIS switched on: error vector is FDS-SDF
 Max. Iterations for DIIS is     :   4
 DIIS matrix (see manual) 
    Scaling factor of diagonals  :  1.200
    threshold for scaling factor :  0.000

 scf convergence criterion : increment of total energy < .1000000D-08
                  and increment of one-electron energy < .1000000D-05


 <geterg> : there is no data group $energy 

  MOs are in ASCII format !


 reading orbital data $scfmo  from file mos . 

 orbital characterization : expanded
 
 mo provided and orthogonalized by Cholesky decomposition

 DSCF restart information will be dumped onto file mos


 Starting SCF iterations


 ITERATION  ENERGY          1e-ENERGY        2e-ENERGY     RMS[dD(SAO)]   TOL
   1  -1183.9801697581    -5145.0770252     2164.7041314    0.000D+00 0.182D-13
                            Exc = -152.032976576     Coul =  2316.73710795    
                              N = 159.99986070    
                            current damping = 0.700
 
          max. resid. norm for Fia-block=  8.346D-01 for orbital     29a         
          max. resid. fock norm         =  7.228D+01 for orbital   1255a         

 ITERATION  ENERGY          1e-ENERGY        2e-ENERGY     RMS[dD(SAO)]   TOL
   2  -1188.8418026387    -5175.5211531     2190.2866264    0.127D-01 0.182D-13
                            Exc = -152.521886912     Coul =  2342.80851330    
                              N = 159.99988879    
                            current damping = 0.650
 
          Norm of current diis error:  5.3723    
          max. resid. norm for Fia-block=  1.655D-01 for orbital      5a         
          max. resid. fock norm         =  4.608D-01 for orbital   1292a         

 ITERATION  ENERGY          1e-ENERGY        2e-ENERGY     RMS[dD(SAO)]   TOL
   3  -1189.4150318093    -5185.4184956     2199.6107397    0.715D-02 0.182D-13
                            Exc = -153.325629041     Coul =  2352.93636872    
                              N = 159.99990478    
                            current damping = 0.550
 
          Norm of current diis error:  2.5633    
          max. resid. norm for Fia-block=  6.625D-02 for orbital      1a         
          max. resid. fock norm         =  1.195D-01 for orbital   1225a         

 ITERATION  ENERGY          1e-ENERGY        2e-ENERGY     RMS[dD(SAO)]   TOL
   4  -1189.6124080928    -5187.7351060     2201.7299739    0.242D-02 0.182D-13
                            Exc = -153.183400915     Coul =  2354.91337477    
                              N = 159.99991212    
                            current damping = 0.450
 
          Norm of current diis error:  1.0829    
          max. resid. norm for Fia-block=  3.471D-02 for orbital     24a         
          max. resid. fock norm         =  6.437D-02 for orbital   1380a         

 ITERATION  ENERGY          1e-ENERGY        2e-ENERGY     RMS[dD(SAO)]   TOL
   5  -1189.6555287751    -5189.0063326     2202.9580798    0.135D-02 0.182D-13
                            Exc = -153.401152486     Coul =  2356.35923226    
                              N = 159.99991572    
                            current damping = 0.350
 
          Norm of current diis error: 0.56236    
          max. resid. norm for Fia-block=  1.442D-02 for orbital     79a         
          max. resid. fock norm         =  2.732D-02 for orbital   1310a         
          mo-orthogonalization: Cholesky decomposition

 ITERATION  ENERGY          1e-ENERGY        2e-ENERGY     RMS[dD(SAO)]   TOL
   6  -1189.6654185016    -5189.6539558     2203.5958132    0.135D-02 0.182D-13
                            Exc = -153.383945831     Coul =  2356.97975902    
                              N = 159.99991759    
                            current damping = 0.250
 
          Norm of current diis error: 0.32677    
          max. resid. norm for Fia-block=  8.529D-03 for orbital     80a         
          max. resid. fock norm         =  1.709D-02 for orbital   1458a         

 ITERATION  ENERGY          1e-ENERGY        2e-ENERGY     RMS[dD(SAO)]   TOL
   7  -1189.6663313949    -5189.7778529     2203.7187974    0.244D-03 0.182D-13
                            Exc = -153.391221972     Coul =  2357.11001939    
                              N = 159.99991801    
                            current damping = 0.100
 
          Norm of current diis error: 0.29419    
          max. resid. norm for Fia-block=  8.094D-03 for orbital     70a         
          max. resid. fock norm         =  1.637D-02 for orbital   1458a         
          irrep a   : virtual orbitals shifted by    0.00444

 ITERATION  ENERGY          1e-ENERGY        2e-ENERGY     RMS[dD(SAO)]   TOL
   8  -1189.6676100777    -5189.6017227     2203.5413886    0.151D-03 0.182D-13
                            Exc = -153.382093339     Coul =  2356.92348190    
                              N = 159.99991827    
                            current damping = 0.150
 
          Norm of current diis error: 0.20592    
          max. resid. norm for Fia-block=  5.062D-03 for orbital     77a         
          max. resid. fock norm         =  1.261D-02 for orbital   1458a         
          irrep a   : virtual orbitals shifted by    0.00328

 ITERATION  ENERGY          1e-ENERGY        2e-ENERGY     RMS[dD(SAO)]   TOL
   9  -1189.6687819374    -5189.6157259     2203.5542199    0.117D-03 0.182D-13
                            Exc = -153.392254567     Coul =  2356.94647443    
                              N = 159.99991824    
                            current damping = 0.200
 
          Norm of current diis error: 0.10477    
          max. resid. norm for Fia-block=  1.727D-03 for orbital     70a         
          max. resid. fock norm         =  4.393D-03 for orbital   1458a         

 ITERATION  ENERGY          1e-ENERGY        2e-ENERGY     RMS[dD(SAO)]   TOL
  10  -1189.6691127064    -5189.6703975     2203.6085607    0.432D-04 0.182D-13
                            Exc = -153.392835633     Coul =  2357.00139634    
                              N = 159.99991821    
                            current damping = 0.050
 
          Norm of current diis error: 0.26718E-01
          max. resid. norm for Fia-block=  5.748D-04 for orbital     68a         
          max. resid. fock norm         =  1.098D-03 for orbital   1460a         
          irrep a   : virtual orbitals shifted by    0.01070
          mo-orthogonalization: Cholesky decomposition

 ITERATION  ENERGY          1e-ENERGY        2e-ENERGY     RMS[dD(SAO)]   TOL
  11  -1189.6691040906    -5189.6677324     2203.6059043    0.112D-04 0.182D-13
                            Exc = -153.388633703     Coul =  2356.99453796    
                              N = 159.99991827    
                            current damping = 0.100
 
          Norm of current diis error: 0.32101E-01
          max. resid. norm for Fia-block=  5.514D-04 for orbital     68a         
          max. resid. fock norm         =  1.202D-03 for orbital   1455a         
          irrep a   : virtual orbitals shifted by    0.00630

 ITERATION  ENERGY          1e-ENERGY        2e-ENERGY     RMS[dD(SAO)]   TOL
  12  -1189.6691283805    -5189.6401185     2203.5782660    0.630D-05 0.182D-13
                            Exc = -153.389897200     Coul =  2356.96816322    
                              N = 159.99991826    
                            current damping = 0.050
 
          Norm of current diis error: 0.11556E-01
          max. resid. norm for Fia-block=  3.667D-04 for orbital     68a         
          max. resid. fock norm         =  8.005D-04 for orbital   1455a         
          irrep a   : virtual orbitals shifted by    0.01081

 ITERATION  ENERGY          1e-ENERGY        2e-ENERGY     RMS[dD(SAO)]   TOL
  13  -1189.6691287188    -5189.6548284     2203.5929756    0.875D-05 0.182D-13
                            Exc = -153.390393635     Coul =  2356.98336921    
                              N = 159.99991823    
                            current damping = 0.100
 
          Norm of current diis error: 0.10112E-01
          max. resid. norm for Fia-block=  2.857D-04 for orbital     68a         
          max. resid. fock norm         =  6.458D-04 for orbital   1455a         
          irrep a   : virtual orbitals shifted by    0.00647

 ITERATION  ENERGY          1e-ENERGY        2e-ENERGY     RMS[dD(SAO)]   TOL
  14  -1189.6691312943    -5189.6565159     2203.5946605    0.410D-05 0.182D-13
                            Exc = -153.390690686     Coul =  2356.98535117    
                              N = 159.99991825    
                            current damping = 0.050
 
          Norm of current diis error: 0.52594E-02
          max. resid. norm for Fia-block=  1.718D-04 for orbital     70a         
          max. resid. fock norm         =  4.421D-04 for orbital   1458a         
          irrep a   : virtual orbitals shifted by    0.01062

 ITERATION  ENERGY          1e-ENERGY        2e-ENERGY     RMS[dD(SAO)]   TOL
  15  -1189.6691304446    -5189.6536438     2203.5917892    0.402D-05 0.182D-13
                            Exc = -153.390812668     Coul =  2356.98260191    
                              N = 159.99991825    
                            current damping = 0.100
 
          Norm of current diis error: 0.70406E-02
          max. resid. norm for Fia-block=  1.027D-04 for orbital     70a         
          max. resid. fock norm         =  2.846D-04 for orbital   1458a         
          irrep a   : virtual orbitals shifted by    0.00642
          mo-orthogonalization: Cholesky decomposition

 ITERATION  ENERGY          1e-ENERGY        2e-ENERGY     RMS[dD(SAO)]   TOL
  16  -1189.6691320967    -5189.6522689     2203.5904127    0.224D-05 0.182D-13
                            Exc = -153.390666916     Coul =  2356.98107960    
                              N = 159.99991825    
                            current damping = 0.050
 
          Norm of current diis error: 0.19240E-02
          max. resid. norm for Fia-block=  4.620D-05 for orbital     80a         
          max. resid. fock norm         =  7.335D-05 for orbital   1313a         
          irrep a   : virtual orbitals shifted by    0.01072

 ITERATION  ENERGY          1e-ENERGY        2e-ENERGY     RMS[dD(SAO)]   TOL
  17  -1189.6691321000    -5189.6541618     2203.5923057    0.156D-05 0.182D-13
                            Exc = -153.390442359     Coul =  2356.98274801    
                              N = 159.99991825    
                            current damping = 0.100
 
          Norm of current diis error: 0.19680E-02
          max. resid. norm for Fia-block=  3.063D-05 for orbital     80a         
          max. resid. fock norm         =  4.523D-05 for orbital     80a         
          irrep a   : virtual orbitals shifted by    0.00644

 ITERATION  ENERGY          1e-ENERGY        2e-ENERGY     RMS[dD(SAO)]   TOL
  18  -1189.6691321931    -5189.6533059     2203.5914497    0.961D-06 0.182D-13
                            Exc = -153.390595125     Coul =  2356.98204478    
                              N = 159.99991825    
                            current damping = 0.150
 
          Norm of current diis error: 0.48100E-03
          max. resid. norm for Fia-block=  8.266D-06 for orbital     70a         
          max. resid. fock norm         =  2.045D-05 for orbital   1458a         
          irrep a   : virtual orbitals shifted by    0.00219

 ITERATION  ENERGY          1e-ENERGY        2e-ENERGY     RMS[dD(SAO)]   TOL
  19  -1189.6691321980    -5189.6533234     2203.5914671    0.282D-06 0.182D-13
                            Exc = -153.390601799     Coul =  2356.98206893    
                              N = 159.99991825    
                            current damping = 0.200
 
          Norm of current diis error: 0.26333E-03
          max. resid. norm for Fia-block=  6.349D-06 for orbital     72a         
          max. resid. fock norm         =  1.277D-05 for orbital   1313a         

 ITERATION  ENERGY          1e-ENERGY        2e-ENERGY     RMS[dD(SAO)]   TOL
  20  -1189.6691321978    -5189.6535796     2203.5917233    0.289D-06 0.182D-13
                            Exc = -153.390595131     Coul =  2356.98231843    
                              N = 159.99991825    
                            current damping = 0.050
 
          Norm of current diis error: 0.26314E-03
          max. resid. norm for Fia-block=  4.521D-06 for orbital     72a         
          max. resid. fock norm         =  9.498D-06 for orbital   1459a         
          irrep a   : virtual orbitals shifted by    0.01069
          mo-orthogonalization: Cholesky decomposition

 DENSITY CONVERGED !


 ITERATION  ENERGY          1e-ENERGY        2e-ENERGY     RMS[dD(SAO)]   TOL
  21  -1189.6691322000    -5189.6534422     2203.5915859    0.801D-07 0.182D-13
                            Exc = -153.390587707     Coul =  2356.98217363    
                              N = 159.99991825    
                            current damping = 0.100
 
          Norm of current diis error: 0.80450E-04
          max. resid. norm for Fia-block=  2.617D-06 for orbital     72a         
          max. resid. fock norm         =  5.359D-06 for orbital   1459a         
          irrep a   : virtual orbitals shifted by    0.00644

 DENSITY CONVERGED !


 ITERATION  ENERGY          1e-ENERGY        2e-ENERGY     RMS[dD(SAO)]   TOL
  22  -1189.6691321998    -5189.6533437     2203.5914874    0.925D-07 0.182D-13
                            Exc = -153.390593644     Coul =  2356.98208109    
                              N = 159.99991825    
                            current damping = 0.050
 
          Norm of current diis error: 0.92275E-04
          max. resid. norm for Fia-block=  1.661D-06 for orbital     72a         
          max. resid. fock norm         =  3.552D-06 for orbital   1459a         
          irrep a   : virtual orbitals shifted by    0.01069

 DENSITY CONVERGED !


 ITERATION  ENERGY          1e-ENERGY        2e-ENERGY     RMS[dD(SAO)]   TOL
  23  -1189.6691322001    -5189.6533847     2203.5915284    0.216D-07 0.182D-13
                            Exc = -153.390595729     Coul =  2356.98212409    
                              N = 159.99991825    
                            current damping = 0.100
 
          Norm of current diis error: 0.29996E-04
          max. resid. norm for Fia-block=  1.144D-06 for orbital     68a         
          max. resid. fock norm         =  2.558D-06 for orbital   1455a         
          irrep a   : virtual orbitals shifted by    0.00644

 DENSITY CONVERGED !


 ITERATION  ENERGY          1e-ENERGY        2e-ENERGY     RMS[dD(SAO)]   TOL
  24  -1189.6691322001    -5189.6534079     2203.5915516    0.234D-07 0.182D-13
                            Exc = -153.390591925     Coul =  2356.98214355    
                              N = 159.99991825    
                            current damping = 0.050
 
          Norm of current diis error: 0.37883E-04
          max. resid. norm for Fia-block=  9.198D-07 for orbital     68a         
          max. resid. fock norm         =  2.008D-06 for orbital   1455a         
          irrep a   : virtual orbitals shifted by    0.01069

 ENERGY & DENSITY CONVERGED !


 ITERATION  ENERGY          1e-ENERGY        2e-ENERGY     RMS[dD(SAO)]   TOL
  25  -1189.6688187658    -5189.6534019     2203.5918591    0.923D-08 0.182D-13
                            Exc = -153.390279312     Coul =  2356.98213839    
                              N = 159.99999403    
                            current damping = 0.100
 
          Norm of current diis error: 0.14439E-04
          max. resid. norm for Fia-block=  3.522D-07 for orbital     70a         
          max. resid. fock norm         =  9.300D-07 for orbital   1458a         

 End of SCF iterations

   convergence criteria satisfied after   25 iterations


                  ------------------------------------------ 
                 |  total energy      =  -1189.66881876579  |
                  ------------------------------------------ 
                 :  kinetic energy    =   1184.98128481662  :
                 :  potential energy  =  -2374.65010358240  :
                 :  virial theorem    =      1.99605979927  :
                 :  wavefunction norm =      1.00000000000  :
                  .......................................... 


 <geterg> : there is no data group $energy 


 <skperg> : $end is missing 


 orbitals $scfmo  will be written to file mos

    irrep                 76a         77a         78a         79a         80a   
 eigenvalues H         -0.28564    -0.28178    -0.27491    -0.27450    -0.26133
            eV          -7.7727     -7.6678     -7.4808     -7.4697     -7.1113
 occupation              2.0000      2.0000      2.0000      2.0000      2.0000 

    irrep                 81a         82a         83a         84a         85a   
 eigenvalues H         -0.17628    -0.16161    -0.14654    -0.14030    -0.09181
            eV          -4.7968     -4.3976     -3.9876     -3.8178     -2.4983
 
 
 ! grave: sending quit signal to master process
 
 
 
 
 ==============================================================================
                           electrostatic moments
 ==============================================================================

 reference point for electrostatic moments:    0.00000   0.00000   0.00000

 
              nuc           elec       ->  total
 ------------------------------------------------------------------------------
                          charge      
 ------------------------------------------------------------------------------
         160.000000    -160.000000      -0.000000
 
 ------------------------------------------------------------------------------
                       dipole moment  
 ------------------------------------------------------------------------------
   x      24.353536     -24.239366       0.114170
   y       5.044200      -5.484774      -0.440574
   z      13.454961     -13.674035      -0.219074
 
   | dipole moment | =     0.5051 a.u. =     1.2839 debye 
 
 ------------------------------------------------------------------------------
                     quadrupole moment
 ------------------------------------------------------------------------------
  xx    5686.270411   -5810.331058    -124.060647
  yy    1383.769871   -1488.363113    -104.593242
  zz    1032.482140   -1130.358348     -97.876208
  xy    -476.683075     481.099298       4.416223
  xz    1854.757292   -1862.775298      -8.018006
  yz     565.252587    -570.067002      -4.814415
 
     1/3  trace=    -108.843366
     anisotropy=      29.593441
 
 ==============================================================================
 

    ridft profiling
  --------------------------------------------------------------------
             module   cpu total (s)       %  wall total (s)       %

               RIDFT          2609.9  100.00          2844.4  100.00
         Ridft_b_scf           664.3   25.45           665.5   23.40
        b_scf_prelim             0.0    0.00             0.0    0.00
        b_scf_molinp             0.0    0.00             0.0    0.00
         b_scf_init0             0.0    0.00             0.0    0.00
        b_scf_auxbas             0.0    0.00             0.0    0.00
      b_scf_symmetry             0.0    0.00             0.3    0.01
         b_scf_cosmo             0.0    0.00             0.0    0.00
        b_scf_params           114.4    4.38           115.0    4.04
          b_scf_ri-j           544.9   20.88           545.2   19.17
    b_scf_ri-j_auxpq           544.9   20.88           545.1   19.17
     ri-j_auxpq_chol             0.2    0.01             0.2    0.01
         b_scf_1elec             0.9    0.03             0.9    0.03
       b_scf_moinput             4.0    0.15             4.1    0.14
     moinput_orthmos             3.9    0.15             3.9    0.14
    b_scf_dft-dstmax             0.0    0.00             0.0    0.00
           Ridft_scf          1945.3   74.53          2178.5   76.59
          Scf_b_loop             0.0    0.00             0.0    0.00
                noga             0.0    0.00             0.0    0.00
            Scf_loop          1943.9   74.48          2177.1   76.54
     scf_loop_mkdmat             4.0    0.16            70.6    2.48
       scf_loop_ri-j            67.3    2.58            67.4    2.37
      parlp1.bc.dens             1.7    0.06             1.7    0.06
        parlp1.gs.gp             0.0    0.00             0.0    0.00
        parlp2.bc.gq             0.0    0.00             0.0    0.00
        scf_loop_dft          1747.9   66.97          1750.0   61.52
      pardft.bc.dens             0.0    0.00             0.0    0.00
        dft_grid_con             0.9    0.03             0.9    0.03
          dft_xcmrhf          1733.3   66.41          1735.4   61.01
          dft_getval            44.8    1.72            45.0    1.58
          funct2 dst             0.3    0.01             0.3    0.01
      funct2 f2loop1            14.3    0.55            14.4    0.51
      funct2 f2loop2            13.8    0.53            13.9    0.49
          funct2 s+c            13.7    0.52            13.7    0.48
        funct2 cmf_2            12.3    0.47            12.4    0.44
          dft_mkdens           776.9   29.77           777.9   27.35
        dft_mgga-fun             1.7    0.06             1.7    0.06
          dft_mkfock           907.1   34.76           908.1   31.93
     pardft.red.fock           104.6    4.01           104.8    3.68
     scf_loop_energy             0.1    0.00             7.8    0.27
     scf_loop_mkfock             0.1    0.00             0.1    0.00
       scf_loop_diis            28.0    1.07           176.3    6.20
       scf_loop_diag            58.9    2.26            59.0    2.07
         diag_tritrn            19.3    0.74            19.3    0.68
          diag_rdiag            33.3    1.28            33.3    1.17
     scf_loop_modump            29.2    1.12            37.5    1.32
      scf_loop_ortho             7.2    0.28             7.3    0.26
          Scf_a_loop             1.4    0.05             1.4    0.05
         Ridft_a_scf             0.4    0.02             0.5    0.02
         a_scf_fanal             0.4    0.01             0.4    0.01
 


    ------------------------------------------------------------------------
         total  cpu-time : 43 minutes and 32 seconds
         total wall-time : 47 minutes and 27 seconds
    ------------------------------------------------------------------------


   ****  ridft : all done  ****


    2017-11-01 18:02:17.051 

