 operating system is UNIX !

 ridft (c-9-373.gp.local) : TURBOMOLE V7.2 ( 21454 ) 4 Oct 2017 at 12:48:15
 Copyright (C) 2017 TURBOMOLE GmbH, Karlsruhe


    2018-05-18 15:36:32.195 



                                  r i d f t

                        DFT program with RI approximation 
                                for coulomb part 




                                                 
                                 References:     
                                                 
          TURBOMOLE:                             
              R. Ahlrichs, M. Baer, M. Haeser, H. Horn, and
              C. Koelmel
              Electronic structure calculations on workstation
              computers: the program system TURBOMOLE
              Chem. Phys. Lett. 162: 165 (1989)
          Density Functional:                              
              O. Treutler and R. Ahlrichs                      
              Efficient Molecular Numerical Integration Schemes
              J. Chem. Phys. 102: 346 (1995)                   
          Parallel Version:                                
              Performance of parallel TURBOMOLE for Density    
              Functional Calculations                          
              M. v. Arnim and R. Ahlrichs                      
              J. Comp. Chem. 19: 1746 (1998)                   
          RI-J Method:                                     
              Auxiliary Basis Sets to approximate Coulomb      
              Potentials                                       
              Chem. Phys. Lett. 240: 283 (1995)                
              K. Eichkorn, O. Treutler, H. Oehm, M. Haeser     
              and R. Ahlrichs                                  
              Chem. Phys. Lett. 242: 652 (1995)                
                                                           
              Auxiliary Basis Sets for Main Row Atoms and their
              Use to approximate Coulomb Potentials            
              K. Eichkorn, F. Weigend, O. Treutler and         
              R. Ahlrichs                                      
              Theo. Chem. Acc. 97: 119 (1997)                   
                                                           
              Accurate Coulomb-fitting basis sets for H to Rn 
              F. Weigend                                        
              Phys. Chem. Chem. Phys. 8: 1057 (2006)            
                                                           
          Multipole accelerated RI-J (MARI-J):             
              Fast evaluation of the Coulomb potential for     
              electron densities using multipole accelerated   
              resolution of identity approximation             
              M. Sierka, A. Hogekamp and R. Ahlrichs           
              J. Chem. Phys. 118: 9136 (2003)                  
          RI-JK Method:                                     
              A fully direct RI-HF algorithm: Implementation,
              optimised auxiliary basis sets, demonstration of
              accuracy and efficiency                         
              F. Weigend                                      
              Phys. Chem. Chem. Phys. 4: 4285 (2002)           
          Two-component HF and DFT with spin-orbit coupling:  
              Self-consistent treatment of spin-orbit         
              interactions with efficient Hartree-Fock and    
              density functional methods                      
              M. K. Armbruster, F. Weigend, C. van Wüllen and 
              W. Klopper                                      
              Phys. Chem. Chem. Phys. 10: 1748 (2008)         
          Relativistic all-electron 2c calculations           
              An efficient implementation of two-component    
              relativistic exact-decoupling methods for large 
              molecules                                       
              D. Peng, N. Middendorf, F. Weigend, M. Reiher   
              J. Chem. Phys. 138, 184105 (2013)               
                                         




              +--------------------------------------------------+
              |      general information about current run       |
              +--------------------------------------------------+

 
 PBE functional
 exchange:    LDA + PBE
 correlation: LDA (PW) + PBE
 A DFT calculation using the RI-J approximation will be carried out.
 Allocatable memory for RI due to $ricore (MB):                   500


              +--------------------------------------------------+
              | Atomic coordinate, charge and isotop information |
              +--------------------------------------------------+

                    atomic coordinates            atom    charge  isotop
          2.61043403   -0.00044121    0.24843046    n      7.000     0
          1.28378694   -2.15474030    0.17400534    c      6.000     0
          2.37863533   -3.88331583    0.23788555    h      1.000     0
         -1.34118081   -2.25465884    0.01259364    c      6.000     0
         -2.29429321   -4.06019307   -0.04782615    h      1.000     0
         -2.68646032    0.00025214   -0.07713276    c      6.000     0
         -4.72563086    0.00048674   -0.20630090    h      1.000     0
         -1.34057398    2.25477470    0.01232476    c      6.000     0
         -2.29320463    4.06054494   -0.04824151    h      1.000     0
          1.28435551    2.15420508    0.17365266    c      6.000     0
          2.37965791    3.88246293    0.23716531    h      1.000     0
 
       center of nuclear mass  :   -0.02098124   -0.00010370    0.09105130
       center of nuclear charge:   -0.07338651   -0.00009776    0.08772279

              +--------------------------------------------------+
              |               basis set information              |
              +--------------------------------------------------+

              we will work with the 1s 3p 5d 7f 9g ... basis set
              ...i.e. with spherical basis functions...

   type   atoms  prim   cont   basis
   ---------------------------------------------------------------------------
    n        1     77     57   def2-QZVP   [7s4p3d2f1g|15s8p3d2f1g]
    c        5     77     57   def2-QZVP   [7s4p3d2f1g|15s8p3d2f1g]
    h        5     33     30   def2-QZVP   [4s3p2d1f|7s3p2d1f]
   ---------------------------------------------------------------------------
   total:   11    627    492
   ---------------------------------------------------------------------------

   total number of primitive shells          :   71
   total number of contracted shells         :  152
   total number of cartesian basis functions :  607
   total number of SCF-basis functions       :  492


 integral neglect threshold       :  0.55E-13
 integral storage threshold THIZE :  0.10E-04
 integral storage threshold THIME :         5

 RI-J AUXILIARY BASIS SET information:

              we will work with the 1s 3p 5d 7f 9g ... basis set
              ...i.e. with spherical basis functions...

   type   atoms  prim   cont   basis
   ---------------------------------------------------------------------------
    n        1     70     49   def2-QZVP   [6s4p3d1f1g|12s5p4d2f1g]
    c        5     70     49   def2-QZVP   [6s4p3d1f1g|12s5p4d2f1g]
    h        5     16     11   def2-QZVP   [3s1p1d|5s2p1d]
   ---------------------------------------------------------------------------
   total:   11    500    349
   ---------------------------------------------------------------------------

   total number of primitive shells          :   56
   total number of contracted shells         :  115
   total number of cartesian basis functions :  426
   total number of SCF-basis functions       :  349


 symmetry group of the molecule :   c1 

 the group has the following generators :
   c1(z)

    1 symmetry operations found

 there are 1 real representations :   a   

 maximum number of shells which are related by symmetry :  1


    mo occupation :
   irrep   mo's   occupied
    a      492       21
 
 number of basis functions   :                    492
 number of occupied orbitals :                     21
 
  
           ------------------
           density functional
           ------------------
 PBE functional
 exchange:    LDA + PBE
 correlation: LDA (PW) + PBE

 iterations will be done with small grid
  
 spherical integration : Lebedev's spherical grid
 spherical gridsize    :                     5
    i.e. gridpoints    :                   590
 value for diffuse not defined
 radial integration    : Chebyshev 2nd kind (scaling 3)
 radial gridsize       :                     8
 integration cells     :                    11
 partition function    : becke
 partition sharpness   :                     3
  

 biggest AO integral is expected to be     6.129561670
  
           ------------------------
               RI-J - INFORMATION
           ------------------------
 Contributions to RI integral batches: 
  neglected integral batches:                  1191
  direct contribution:                         1104
  memory contribution:                  9333
 Memory core needed for (P|Q) and Cholesky      1 MByte
 Memory core minimum needed except of (P|Q)     2 MByte
 Total minimum memory core needed (sum)         3 MByte
  
 ****************************************
 Memory allocated for RI-J   443 MByte
 ****************************************
                                            

          ------------------------
          nuclear repulsion energy  :   206.292289025    
          ------------------------


         -----------------
         -S,T+V- integrals
         -----------------

 1e-integrals will be neglected if expon. factor < 0.550570E-14
 
   Difference densities algorithm switched on.
   The maximal number of linear combinations of
   difference densities is                    20 .

 DIIS switched on: error vector is FDS-SDF
 Max. Iterations for DIIS is     :   4
 DIIS matrix (see manual) 
    Scaling factor of diagonals  :  1.200
    threshold for scaling factor :  0.000

 scf convergence criterion : increment of total energy < .1000000D-08
                  and increment of one-electron energy < .1000000D-05

  MOs are in ASCII format !


 automatic virtual orbital shift switched on 
      shift if e(lumo)-e(homo) < 0.10000000    


 reading orbital data $scfmo  from file mos
 orbital characterization : expanded
 mo provided and orthogonalized by Cholesky decomposition

 DSCF restart information will be dumped onto file mos


 Starting SCF iterations

          Overall gridpoints after grid construction =         54767

 ITERATION  ENERGY          1e-ENERGY        2e-ENERGY     NORM[dD(SAO)]  TOL
   1  -247.08448376527    -733.03513269     279.65835990    0.000D+00 0.549D-13
                            Exc = -34.7675747526     Coul =  314.425934651    
                              N = 42.000037379    
                            current damping = 0.700
 
          max. resid. norm for Fia-block=  5.821D-01 for orbital      7a         
          max. resid. fock norm         =  5.132D+01 for orbital    441a         

 ITERATION  ENERGY          1e-ENERGY        2e-ENERGY     NORM[dD(SAO)]  TOL
   2  -247.88999529873    -739.46213639     285.27985206    0.161D+01 0.454D-13
                            Exc = -35.2732879422     Coul =  320.553140007    
                              N = 42.000027750    
                            current damping = 0.650
 
          Norm of current diis error:  2.8965    
          max. resid. norm for Fia-block=  1.372D-01 for orbital      1a         
          max. resid. fock norm         =  2.185D-01 for orbital    455a         

 ITERATION  ENERGY          1e-ENERGY        2e-ENERGY     NORM[dD(SAO)]  TOL
   3  -248.02236720186    -741.01854837     286.70389215    0.641D+00 0.309D-13
                            Exc = -35.4595434701     Coul =  322.163435617    
                              N = 42.000021573    
                            current damping = 0.550
 
          Norm of current diis error:  1.4181    
          max. resid. norm for Fia-block=  5.619D-02 for orbital     21a         
          max. resid. fock norm         =  6.076D-02 for orbital      7a         

 ITERATION  ENERGY          1e-ENERGY        2e-ENERGY     NORM[dD(SAO)]  TOL
   4  -248.06618847788    -741.67297030     287.31449280    0.268D+00 0.247D-13
                            Exc = -35.5151614289     Coul =  322.829654228    
                              N = 42.000019538    
                            current damping = 0.450
 
          Norm of current diis error: 0.56610    
          max. resid. norm for Fia-block=  2.831D-02 for orbital      7a         
          max. resid. fock norm         =  4.756D-02 for orbital    475a         

 ITERATION  ENERGY          1e-ENERGY        2e-ENERGY     NORM[dD(SAO)]  TOL
   5  -248.07149154872    -742.36046570     287.99668513    0.111D+00 0.220D-13
                            Exc = -35.5892482840     Coul =  323.585933412    
                              N = 42.000017950    
                            current damping = 0.350
 
          Norm of current diis error: 0.35024    
          max. resid. norm for Fia-block=  1.421D-02 for orbital     21a         
          max. resid. fock norm         =  1.525D-02 for orbital     21a         
          mo-orthogonalization: Cholesky decomposition

 ITERATION  ENERGY          1e-ENERGY        2e-ENERGY     NORM[dD(SAO)]  TOL
   6  -248.07451664662    -742.17518315     287.80837748    0.855D-01 0.202D-13
                            Exc = -35.5740501215     Coul =  323.382427602    
                              N = 42.000017567    
                            current damping = 0.400
 
          Norm of current diis error: 0.13674    
          max. resid. norm for Fia-block=  3.480D-03 for orbital     20a         
          max. resid. fock norm         =  8.761D-03 for orbital    489a         

 ITERATION  ENERGY          1e-ENERGY        2e-ENERGY     NORM[dD(SAO)]  TOL
   7  -248.07489745500    -742.24591717     287.87873069    0.138D-01 0.198D-13
                            Exc = -35.5802060448     Coul =  323.458936730    
                              N = 42.000017395    
                            current damping = 0.450
 
          Norm of current diis error: 0.57099E-01
          max. resid. norm for Fia-block=  1.595D-03 for orbital     13a         
          max. resid. fock norm         =  4.442D-03 for orbital    489a         

 ITERATION  ENERGY          1e-ENERGY        2e-ENERGY     NORM[dD(SAO)]  TOL
   8  -248.07496595814    -742.28079273     287.91353775    0.455D-02 0.196D-13
                            Exc = -35.5838524718     Coul =  323.497390220    
                              N = 42.000017349    
                            current damping = 0.300
 
          Norm of current diis error: 0.11998E-01
          max. resid. norm for Fia-block=  3.304D-04 for orbital     21a         
          max. resid. fock norm         =  6.079D-04 for orbital    489a         

 ITERATION  ENERGY          1e-ENERGY        2e-ENERGY     NORM[dD(SAO)]  TOL
   9  -248.07496949466    -742.27339123     287.90613271    0.611D-03 0.194D-13
                            Exc = -35.5833671221     Coul =  323.489499836    
                              N = 42.000017325    
                            current damping = 0.350
 
          Norm of current diis error: 0.18571E-02
          max. resid. norm for Fia-block=  7.748D-05 for orbital     13a         
          max. resid. fock norm         =  1.892D-04 for orbital    491a         

 ITERATION  ENERGY          1e-ENERGY        2e-ENERGY     NORM[dD(SAO)]  TOL
  10  -248.07496950843    -742.27570028     287.90844174    0.321D-03 0.192D-13
                            Exc = -35.5835022720     Coul =  323.491944014    
                              N = 42.000017323    
                            current damping = 0.400
 
          Norm of current diis error: 0.16869E-02
          max. resid. norm for Fia-block=  5.202D-05 for orbital     20a         
          max. resid. fock norm         =  9.916D-05 for orbital    488a         
          mo-orthogonalization: Cholesky decomposition

 ITERATION  ENERGY          1e-ENERGY        2e-ENERGY     NORM[dD(SAO)]  TOL
  11  -248.07496955483    -742.27552572     287.90826714    0.742D-04 0.191D-13
                            Exc = -35.5835090542     Coul =  323.491776198    
                              N = 42.000017321    
                            current damping = 0.450
 
          Norm of current diis error: 0.85128E-03
          max. resid. norm for Fia-block=  2.888D-05 for orbital     19a         
          max. resid. fock norm         =  5.100D-05 for orbital    489a         

 ITERATION  ENERGY          1e-ENERGY        2e-ENERGY     NORM[dD(SAO)]  TOL
  12  -248.07496957120    -742.27485783     287.90759923    0.975D-05 0.189D-13
                            Exc = -35.5834567360     Coul =  323.491055966    
                              N = 42.000017321    
                            current damping = 0.300
 
          Norm of current diis error: 0.27656E-03
          max. resid. norm for Fia-block=  8.349D-06 for orbital     19a         
          max. resid. fock norm         =  1.492D-05 for orbital    489a         

 ITERATION  ENERGY          1e-ENERGY        2e-ENERGY     NORM[dD(SAO)]  TOL
  13  -248.07496957282    -742.27483573     287.90757713    0.167D-04 0.187D-13
                            Exc = -35.5834618103     Coul =  323.491038941    
                              N = 42.000017320    
                            current damping = 0.150
 
          Norm of current diis error: 0.79906E-04
          max. resid. norm for Fia-block=  2.426D-06 for orbital     17a         
          max. resid. fock norm         =  3.135D-06 for orbital     15a         

 ITERATION  ENERGY          1e-ENERGY        2e-ENERGY     NORM[dD(SAO)]  TOL
  14  -248.07496957293    -742.27500568     287.90774708    0.665D-05 0.187D-13
                            Exc = -35.5834706106     Coul =  323.491217688    
                              N = 42.000017320    
                            current damping = 0.200
 
          Norm of current diis error: 0.42549E-04
          max. resid. norm for Fia-block=  9.874D-07 for orbital     16a         
          max. resid. fock norm         =  1.875D-06 for orbital    488a         

 ITERATION  ENERGY          1e-ENERGY        2e-ENERGY     NORM[dD(SAO)]  TOL
  15  -248.07496957297    -742.27495720     287.90769861    0.790D-06 0.186D-13
                            Exc = -35.5834680739     Coul =  323.491166680    
                              N = 42.000017320    
                            current damping = 0.250
 
          Norm of current diis error: 0.13535E-04
          max. resid. norm for Fia-block=  4.395D-07 for orbital     21a         
          max. resid. fock norm         =  7.686D-07 for orbital    489a         
          mo-orthogonalization: Cholesky decomposition

 ITERATION  ENERGY          1e-ENERGY        2e-ENERGY     NORM[dD(SAO)]  TOL
  16  -248.07496957296    -742.27493680     287.90767821    0.100D-06 0.185D-13
                            Exc = -35.5834664452     Coul =  323.491144651    
                              N = 42.000017320    
                            current damping = 0.100
 
          Norm of current diis error: 0.64068E-05
          max. resid. norm for Fia-block=  1.601D-07 for orbital     21a         
          max. resid. fock norm         =  2.109D-07 for orbital    472a         

 ITERATION  ENERGY          1e-ENERGY        2e-ENERGY     NORM[dD(SAO)]  TOL
  17  -248.07496957296    -742.27494597     287.90768737    0.423D-07 0.182D-13
                            Exc = -35.5834672691     Coul =  323.491154640    
                              N = 42.000017320    
                            current damping = 0.150
 
          Norm of current diis error: 0.16364E-05
          max. resid. norm for Fia-block=  5.207D-08 for orbital     20a         
          max. resid. fock norm         =  1.081D-07 for orbital    488a         

 ENERGY CONVERGED !

          Overall gridpoints after grid construction =        176035

 ITERATION  ENERGY          1e-ENERGY        2e-ENERGY     NORM[dD(SAO)]  TOL
  18  -248.07495837227    -742.27494582     287.90769842    0.147D-07 0.181D-13
                            Exc = -35.5834560263     Coul =  323.491154450    
                              N = 42.000000733    
                            current damping = 0.200
 
          Norm of current diis error: 0.11744E-05
          max. resid. norm for Fia-block=  2.124D-08 for orbital     19a         
          max. resid. fock norm         =  3.394D-08 for orbital    449a         

 End of SCF iterations

   convergence criteria satisfied after    18 iterations


                  ------------------------------------------ 
                 |  total energy      =   -248.07495837227  |
                  ------------------------------------------ 
                 :  kinetic energy    =    247.04485109883  :
                 :  potential energy  =   -495.11980947109  :
                 :  virial theorem    =      1.99584759671  :
                 :  wavefunction norm =      1.00000000000  :
                  .......................................... 


 <geterg> : there is no data group $energy 


 <skperg> : $end is missing 


 orbitals $scfmo  will be written to file mos

    irrep                 17a         18a         19a         20a         21a   
 eigenvalues H         -0.36186    -0.32364    -0.26891    -0.24633    -0.21811
            eV          -9.8469     -8.8067     -7.3176     -6.7030     -5.9350
 occupation              2.0000      2.0000      2.0000      2.0000      2.0000 

    irrep                 22a         23a         24a         25a         26a   
 eigenvalues H         -0.06870    -0.05526     0.00509     0.02959     0.03984
            eV          -1.8696     -1.5037      0.1386      0.8052      1.0840
 
 
 
 
 ==============================================================================
                           electrostatic moments
 ==============================================================================

 reference point for electrostatic moments:    0.00000   0.00000   0.00000

 
              nuc           elec       ->  total
 ------------------------------------------------------------------------------
                          charge      
 ------------------------------------------------------------------------------
          42.000000     -42.000000       0.000000
 
 ------------------------------------------------------------------------------
                       dipole moment  
 ------------------------------------------------------------------------------
   x      -3.082233       2.208991      -0.873242
   y      -0.004106       0.004224       0.000118
   z       3.684357      -3.737989      -0.053632
 
   | dipole moment | =     0.8749 a.u. =     2.2237 debye 
 
 ------------------------------------------------------------------------------
                     quadrupole moment
 ------------------------------------------------------------------------------
  xx     176.539304    -203.656312     -27.117008
  yy     179.832859    -202.011076     -22.178217
  zz       0.992194     -29.051200     -28.059007
  xy       0.001631      -0.000820       0.000811
  xz      10.586366     -10.598012      -0.011646
  yz      -0.014433       0.014029      -0.000404
 
     1/3  trace=     -25.784744
     anisotropy=       5.470993
 
 ==============================================================================
 


    ------------------------------------------------------------------------
         total  cpu-time :  1 minutes and 37 seconds
         total wall-time :  6 minutes and 59 seconds
    ------------------------------------------------------------------------

   ****  ridft : all done  ****


    2018-05-18 15:43:31.674 

