           Doing BLAS/Lapack in the master proc. with  8 CPUs.
           SMPCPUS    set: Shared-memory Parallelization with   8 CPUs.

           SMP Parallelization Reference:
           C. van Wullen, J. Comput. Chem. 32 (2011) 1195--1201
 operating system is UNIX !

 ridft (c-18-362.gp.local) : TURBOMOLE V7.2 ( 21454 ) 4 Oct 2017 at 12:48:15
 Copyright (C) 2017 TURBOMOLE GmbH, Karlsruhe


    2018-04-24 21:21:57.617 



                                  r i d f t

                        DFT program with RI approximation 
                                for coulomb part 




                                                 
                                 References:     
                                                 
          TURBOMOLE:                             
              R. Ahlrichs, M. Baer, M. Haeser, H. Horn, and
              C. Koelmel
              Electronic structure calculations on workstation
              computers: the program system TURBOMOLE
              Chem. Phys. Lett. 162: 165 (1989)
          Density Functional:                              
              O. Treutler and R. Ahlrichs                      
              Efficient Molecular Numerical Integration Schemes
              J. Chem. Phys. 102: 346 (1995)                   
          Parallel Version:                                
              Performance of parallel TURBOMOLE for Density    
              Functional Calculations                          
              M. v. Arnim and R. Ahlrichs                      
              J. Comp. Chem. 19: 1746 (1998)                   
          RI-J Method:                                     
              Auxiliary Basis Sets to approximate Coulomb      
              Potentials                                       
              Chem. Phys. Lett. 240: 283 (1995)                
              K. Eichkorn, O. Treutler, H. Oehm, M. Haeser     
              and R. Ahlrichs                                  
              Chem. Phys. Lett. 242: 652 (1995)                
                                                           
              Auxiliary Basis Sets for Main Row Atoms and their
              Use to approximate Coulomb Potentials            
              K. Eichkorn, F. Weigend, O. Treutler and         
              R. Ahlrichs                                      
              Theo. Chem. Acc. 97: 119 (1997)                   
                                                           
              Accurate Coulomb-fitting basis sets for H to Rn 
              F. Weigend                                        
              Phys. Chem. Chem. Phys. 8: 1057 (2006)            
                                                           
          Multipole accelerated RI-J (MARI-J):             
              Fast evaluation of the Coulomb potential for     
              electron densities using multipole accelerated   
              resolution of identity approximation             
              M. Sierka, A. Hogekamp and R. Ahlrichs           
              J. Chem. Phys. 118: 9136 (2003)                  
          RI-JK Method:                                     
              A fully direct RI-HF algorithm: Implementation,
              optimised auxiliary basis sets, demonstration of
              accuracy and efficiency                         
              F. Weigend                                      
              Phys. Chem. Chem. Phys. 4: 4285 (2002)           
          Two-component HF and DFT with spin-orbit coupling:  
              Self-consistent treatment of spin-orbit         
              interactions with efficient Hartree-Fock and    
              density functional methods                      
              M. K. Armbruster, F. Weigend, C. van Wüllen and 
              W. Klopper                                      
              Phys. Chem. Chem. Phys. 10: 1748 (2008)         
          Relativistic all-electron 2c calculations           
              An efficient implementation of two-component    
              relativistic exact-decoupling methods for large 
              molecules                                       
              D. Peng, N. Middendorf, F. Weigend, M. Reiher   
              J. Chem. Phys. 138, 184105 (2013)               
                                         




              +--------------------------------------------------+
              |      general information about current run       |
              +--------------------------------------------------+

 

 DENSITY CONVERGENCE CHECK SWITCHED ON !
 SCF CONVERGENCE IF RMS(delta[D]) <     0.1000000000E-06

 TPSS meta-GGA functional
 exchange:    LDA + TPSS
 correlation: LDA (PW) + TPSS
 A DFT calculation using the RI-J approximation will be carried out.
 Allocatable memory for RI due to $ricore (MB):                   500


              +--------------------------------------------------+
              | Atomic coordinate, charge and isotop information |
              +--------------------------------------------------+

                    atomic coordinates            atom    charge  isotop
          3.07971469    0.95055591    0.51043750    c      6.000     0
          3.10212411    2.75756002   -0.46880866    h      1.000     0
          4.37531918   -0.34686812   -0.41117861    h      1.000     0
          3.72227981    1.22711302    2.44526980    h      1.000     0
          0.49478276   -0.25107132    0.59443642    c      6.000     0
          0.18756034   -2.47481562    1.15620995    o      8.000     0
         -1.46170742    1.32755556    0.04171741    n      7.000     0
         -1.07527567    3.14933587   -0.31334369    h      1.000     0
         -4.06293413    0.50260791    0.17962467    c      6.000     0
         -4.05296672   -1.54845568    0.19069624    h      1.000     0
         -4.98990345    1.16373181    1.89653750    h      1.000     0
         -5.11689448    1.17304958   -1.45180207    h      1.000     0
         -0.08646646    0.97887259    7.13601528    c      6.000     0
         -0.09569128    2.38137783    8.62111811    h      1.000     0
         -1.31201575    1.29590937    5.53223577    h      1.000     0
          1.36580754   -1.07518777    7.26793633    c      6.000     0
          2.58525720   -1.39989118    8.87444517    h      1.000     0
          1.35614729   -2.46451467    5.77068878    h      1.000     0
 
       center of nuclear mass  :   -0.09378948   -0.00268911    2.35739865
       center of nuclear charge:   -0.09799398    0.06281028    2.39925466

              +--------------------------------------------------+
              |               basis set information              |
              +--------------------------------------------------+

              we will work with the 1s 3p 5d 7f 9g ... basis set
              ...i.e. with spherical basis functions...

   type   atoms  prim   cont   basis
   ---------------------------------------------------------------------------
    c        5     77     55   cc-pVQZ   [5s4p3d2f1g|21s6p3d2f1g]
    h       11     32     30   cc-pVQZ   [4s3p2d1f|6s3p2d1f]
    o        1     77     55   cc-pVQZ   [5s4p3d2f1g|21s6p3d2f1g]
    n        1     77     55   cc-pVQZ   [5s4p3d2f1g|21s6p3d2f1g]
   ---------------------------------------------------------------------------
   total:   18    891    715
   ---------------------------------------------------------------------------

   total number of primitive shells          :  111
   total number of contracted shells         :  215
   total number of cartesian basis functions :  875
   total number of SCF-basis functions       :  715


 integral neglect threshold       :  0.38E-13
 integral storage threshold THIZE :  0.10E-04
 integral storage threshold THIME :         5

 RI-J AUXILIARY BASIS SET information:

              we will work with the 1s 3p 5d 7f 9g ... basis set
              ...i.e. with spherical basis functions...

   type   atoms  prim   cont   basis
   ---------------------------------------------------------------------------
    c        5     70     49   cc-pVQZ   [6s4p3d1f1g|12s5p4d2f1g]
    h       11     16     11   cc-pVQZ   [3s1p1d|5s2p1d]
    o        1     70     49   cc-pVQZ   [6s4p3d1f1g|12s5p4d2f1g]
    n        1     70     49   cc-pVQZ   [6s4p3d1f1g|12s5p4d2f1g]
   ---------------------------------------------------------------------------
   total:   18    666    464
   ---------------------------------------------------------------------------

   total number of primitive shells          :   80
   total number of contracted shells         :  160
   total number of cartesian basis functions :  559
   total number of SCF-basis functions       :  464


 symmetry group of the molecule :   c1 

 the group has the following generators :
   c1(z)

    1 symmetry operations found

 there are 1 real representations :   a   

 maximum number of shells which are related by symmetry :  1


    mo occupation :
   irrep   mo's   occupied
    a      715       28
 
 number of basis functions   :                    715
 number of occupied orbitals :                     28
 
  
           ------------------
           density functional
           ------------------
 TPSS meta-GGA functional
 exchange:    LDA + TPSS
 correlation: LDA (PW) + TPSS

 iterations will be done with small grid
  
 spherical integration : Lebedev's spherical grid
 spherical gridsize    :                     5
    i.e. gridpoints    :                   590
 value for diffuse not defined
 radial integration    : Chebyshev 2nd kind (scaling 3)
 radial gridsize       :                     8
 integration cells     :                    18
 partition function    : becke
 partition sharpness   :                     3
  

 biggest AO integral is expected to be     4.785886462
  
           ------------------------
               RI-J - INFORMATION
           ------------------------
 Contributions to RI integral batches: 
  neglected integral batches:                  4984
  direct contribution:                         9379
  memory contribution:                  8857
 Memory core needed for (P|Q) and Cholesky      2 MByte
 Memory core minimum needed except of (P|Q)     1 MByte
 Total minimum memory core needed (sum)         3 MByte
  
 ****************************************
 Memory allocated for RI-J   385 MByte
 ****************************************
                                            

          ------------------------
          nuclear repulsion energy  :   300.387895428    
          ------------------------


         -----------------
         -S,T+V- integrals
         -----------------

 1e-integrals will be neglected if expon. factor < 0.381938E-14
 Difference densities >>NOT<< switched on in parallel ridft!

 DIIS switched on: error vector is FDS-SDF
 Max. Iterations for DIIS is     :   4
 DIIS matrix (see manual) 
    Scaling factor of diagonals  :  1.200
    threshold for scaling factor :  0.000

 scf convergence criterion : increment of total energy < .1000000D-08
                  and increment of one-electron energy < .1000000D-05

  MOs are in ASCII format !


 automatic virtual orbital shift switched on 
      shift if e(lumo)-e(homo) < 0.10000000    


 reading orbital data $scfmo  from file mos
 orbital characterization : expanded
 mo provided and orthogonalized by Cholesky decomposition

 DSCF restart information will be dumped onto file mos


 Starting SCF iterations

          Overall gridpoints after grid construction =         82211

 ITERATION  ENERGY          1e-ENERGY        2e-ENERGY     RMS[dD(SAO)]   TOL
   1  -325.88027308960    -1028.4770683     402.20889976    0.000D+00 0.381D-13
                            Exc = -45.8783109928     Coul =  448.087210755    
                              N = 56.000101118    
                            current damping = 0.700
 
          max. resid. norm for Fia-block=  3.839D-01 for orbital     20a         
          max. resid. fock norm         =  1.007D+01 for orbital    678a         

 ITERATION  ENERGY          1e-ENERGY        2e-ENERGY     RMS[dD(SAO)]   TOL
   2  -327.04860935864    -1034.4753763     407.03887148    0.353D-02 0.381D-13
                            Exc = -46.3526253242     Coul =  453.391496804    
                              N = 56.000088180    
                            current damping = 0.650
 
          Norm of current diis error:  3.0918    
          max. resid. norm for Fia-block=  1.650D-01 for orbital      1a         
          max. resid. fock norm         =  3.046D-01 for orbital    707a         

 ITERATION  ENERGY          1e-ENERGY        2e-ENERGY     RMS[dD(SAO)]   TOL
   3  -327.23943203633    -1036.5856888     408.95836129    0.169D-02 0.381D-13
                            Exc = -46.6906358823     Coul =  455.648997176    
                              N = 56.000077747    
                            current damping = 0.550
 
          Norm of current diis error:  1.4938    
          max. resid. norm for Fia-block=  6.303D-02 for orbital      1a         
          max. resid. fock norm         =  6.653D-02 for orbital      1a         

 ITERATION  ENERGY          1e-ENERGY        2e-ENERGY     RMS[dD(SAO)]   TOL
   4  -327.29935431951    -1036.8792845     409.19203479    0.114D-02 0.381D-13
                            Exc = -46.7332367087     Coul =  455.925271502    
                              N = 56.000077724    
                            current damping = 0.400
 
          Norm of current diis error: 0.63462    
          max. resid. norm for Fia-block=  3.492D-02 for orbital      8a         
          max. resid. fock norm         =  7.649D-02 for orbital    680a         

 ITERATION  ENERGY          1e-ENERGY        2e-ENERGY     RMS[dD(SAO)]   TOL
   5  -327.30707622545    -1037.7417816     410.04680991    0.491D-03 0.381D-13
                            Exc = -46.8740476346     Coul =  456.920857546    
                              N = 56.000073213    
                            current damping = 0.300
 
          Norm of current diis error: 0.43941    
          max. resid. norm for Fia-block=  1.398D-02 for orbital     28a         
          max. resid. fock norm         =  1.716D-02 for orbital     27a         
          mo-orthogonalization: Cholesky decomposition

 ITERATION  ENERGY          1e-ENERGY        2e-ENERGY     RMS[dD(SAO)]   TOL
   6  -327.31244860104    -1037.6892172     409.98887313    0.383D-03 0.381D-13
                            Exc = -46.8632044701     Coul =  456.852077603    
                              N = 56.000074777    
                            current damping = 0.350
 
          Norm of current diis error: 0.11561    
          max. resid. norm for Fia-block=  5.347D-03 for orbital     27a         
          max. resid. fock norm         =  8.017D-03 for orbital    681a         

 ITERATION  ENERGY          1e-ENERGY        2e-ENERGY     RMS[dD(SAO)]   TOL
   7  -327.31269076810    -1037.5748069     409.87422070    0.104D-03 0.381D-13
                            Exc = -46.8526809278     Coul =  456.726901625    
                              N = 56.000074938    
                            current damping = 0.200
 
          Norm of current diis error: 0.65482E-01
          max. resid. norm for Fia-block=  1.680D-03 for orbital     13a         
          max. resid. fock norm         =  3.322D-03 for orbital    685a         

 ITERATION  ENERGY          1e-ENERGY        2e-ENERGY     RMS[dD(SAO)]   TOL
   8  -327.31278164507    -1037.6499316     409.94925453    0.184D-04 0.381D-13
                            Exc = -46.8624324960     Coul =  456.811687027    
                              N = 56.000074677    
                            current damping = 0.250
 
          Norm of current diis error: 0.12539E-01
          max. resid. norm for Fia-block=  5.116D-04 for orbital     26a         
          max. resid. fock norm         =  1.012D-03 for orbital    711a         

 ITERATION  ENERGY          1e-ENERGY        2e-ENERGY     RMS[dD(SAO)]   TOL
   9  -327.31278334794    -1037.6615989     409.96092015    0.604D-05 0.381D-13
                            Exc = -46.8631544732     Coul =  456.824074621    
                              N = 56.000074689    
                            current damping = 0.100
 
          Norm of current diis error: 0.10101E-01
          max. resid. norm for Fia-block=  3.761D-04 for orbital     26a         
          max. resid. fock norm         =  7.036D-04 for orbital    711a         

 ITERATION  ENERGY          1e-ENERGY        2e-ENERGY     RMS[dD(SAO)]   TOL
  10  -327.31278437400    -1037.6512426     409.95056278    0.562D-05 0.381D-13
                            Exc = -46.8620183127     Coul =  456.812581094    
                              N = 56.000074733    
                            current damping = 0.150
 
          Norm of current diis error: 0.72547E-02
          max. resid. norm for Fia-block=  1.499D-04 for orbital     28a         
          max. resid. fock norm         =  2.399D-04 for orbital    711a         
          mo-orthogonalization: Cholesky decomposition

 ITERATION  ENERGY          1e-ENERGY        2e-ENERGY     RMS[dD(SAO)]   TOL
  11  -327.31278570044    -1037.6513211     409.95063999    0.264D-05 0.381D-13
                            Exc = -46.8623222994     Coul =  456.812962292    
                              N = 56.000074707    
                            current damping = 0.200
 
          Norm of current diis error: 0.94319E-03
          max. resid. norm for Fia-block=  2.914D-05 for orbital     13a         
          max. resid. fock norm         =  5.054D-05 for orbital    667a         

 ITERATION  ENERGY          1e-ENERGY        2e-ENERGY     RMS[dD(SAO)]   TOL
  12  -327.31278571385    -1037.6537662     409.95308508    0.490D-06 0.381D-13
                            Exc = -46.8624855102     Coul =  456.815570586    
                              N = 56.000074704    
                            current damping = 0.050
 
          Norm of current diis error: 0.54593E-03
          max. resid. norm for Fia-block=  1.410D-05 for orbital     13a         
          max. resid. fock norm         =  1.972D-05 for orbital    708a         

 ITERATION  ENERGY          1e-ENERGY        2e-ENERGY     RMS[dD(SAO)]   TOL
  13  -327.31278571915    -1037.6526322     409.95195110    0.310D-06 0.381D-13
                            Exc = -46.8623840307     Coul =  456.814335130    
                              N = 56.000074707    
                            current damping = 0.100
 
          Norm of current diis error: 0.21796E-03
          max. resid. norm for Fia-block=  5.866D-06 for orbital     13a         
          max. resid. fock norm         =  7.876D-06 for orbital    667a         

 DENSITY CONVERGED !


 ITERATION  ENERGY          1e-ENERGY        2e-ENERGY     RMS[dD(SAO)]   TOL
  14  -327.31278572002    -1037.6527083     409.95202713    0.908D-07 0.381D-13
                            Exc = -46.8624041398     Coul =  456.814431270    
                              N = 56.000074706    
                            current damping = 0.150
 
          Norm of current diis error: 0.88415E-04
          max. resid. norm for Fia-block=  2.041D-06 for orbital     27a         
          max. resid. fock norm         =  3.385D-06 for orbital    711a         

 DENSITY CONVERGED !


 ITERATION  ENERGY          1e-ENERGY        2e-ENERGY     RMS[dD(SAO)]   TOL
  15  -327.31278572015    -1037.6528033     409.95212215    0.353D-07 0.381D-13
                            Exc = -46.8624096046     Coul =  456.814531758    
                              N = 56.000074706    
                            current damping = 0.050
 
          Norm of current diis error: 0.44431E-04
          max. resid. norm for Fia-block=  1.383D-06 for orbital     28a         
          max. resid. fock norm         =  2.082D-06 for orbital    644a         
          mo-orthogonalization: Cholesky decomposition

 DENSITY CONVERGED !


 ITERATION  ENERGY          1e-ENERGY        2e-ENERGY     RMS[dD(SAO)]   TOL
  16  -327.31278572018    -1037.6527483     409.95206711    0.318D-07 0.381D-13
                            Exc = -46.8624029112     Coul =  456.814470019    
                              N = 56.000074706    
                            current damping = 0.100
 
          Norm of current diis error: 0.26809E-04
          max. resid. norm for Fia-block=  6.939D-07 for orbital     28a         
          max. resid. fock norm         =  1.035D-06 for orbital    644a         

 ENERGY & DENSITY CONVERGED !

          Overall gridpoints after grid construction =        271272

 ITERATION  ENERGY          1e-ENERGY        2e-ENERGY     RMS[dD(SAO)]   TOL
  17  -327.31270096157    -1037.6527546     409.95215820    0.128D-07 0.381D-13
                            Exc = -46.8623200902     Coul =  456.814478293    
                              N = 55.999993323    
                            current damping = 0.150
 
          Norm of current diis error: 0.65606E-05
          max. resid. norm for Fia-block=  1.613D-07 for orbital     27a         
          max. resid. fock norm         =  2.354D-07 for orbital    697a         

 End of SCF iterations

   convergence criteria satisfied after    17 iterations


                  ------------------------------------------ 
                 |  total energy      =   -327.31270096157  |
                  ------------------------------------------ 
                 :  kinetic energy    =    325.99076703557  :
                 :  potential energy  =   -653.30346799714  :
                 :  virial theorem    =      1.99596125075  :
                 :  wavefunction norm =      1.00000000000  :
                  .......................................... 


 <geterg> : there is no data group $energy 


 <skperg> : $end is missing 


 orbitals $scfmo  will be written to file mos

    irrep                 24a         25a         26a         27a         28a   
 eigenvalues H         -0.31799    -0.31389    -0.23972    -0.22587    -0.21117
            eV          -8.6529     -8.5415     -6.5231     -6.1463     -5.7463
 occupation              2.0000      2.0000      2.0000      2.0000      2.0000 

    irrep                 29a         30a         31a         32a         33a   
 eigenvalues H         -0.02217    -0.00620    -0.00003     0.03141     0.04275
            eV          -0.6033     -0.1686     -0.0008      0.8546      1.1632
 
 
 
 
 ==============================================================================
                           electrostatic moments
 ==============================================================================

 reference point for electrostatic moments:    0.00000   0.00000   0.00000

 
              nuc           elec       ->  total
 ------------------------------------------------------------------------------
                          charge      
 ------------------------------------------------------------------------------
          56.000000     -56.000000      -0.000000
 
 ------------------------------------------------------------------------------
                       dipole moment  
 ------------------------------------------------------------------------------
   x      -5.487663       5.290105      -0.197558
   y       3.517376      -2.190711       1.326664
   z     134.358261    -134.752398      -0.394137
 
   | dipole moment | =     1.3980 a.u. =     3.5534 debye 
 
 ------------------------------------------------------------------------------
                     quadrupole moment
 ------------------------------------------------------------------------------
  xx     305.436002    -335.961052     -30.525050
  yy     120.995574    -155.124914     -34.129340
  zz     866.250689    -900.216289     -33.965600
  xy     -28.253830      27.323731      -0.930100
  xz      90.046517     -89.078887       0.967630
  yz     -22.794444      23.877907       1.083463
 
     1/3  trace=     -32.873330
     anisotropy=       4.620975
 
 ==============================================================================
 


    ------------------------------------------------------------------------
         total  cpu-time : 11 minutes and 49 seconds
         total wall-time :  1 minutes and 33 seconds
    ------------------------------------------------------------------------

   ****  ridft : all done  ****


    2018-04-24 21:23:30.120 

