
   OpenMP run-time library returned nthreads =  8

 ricc2 (c-15-33.local) : TURBOMOLE V7.2 ( 21471 ) 11 Oct 2017 at 17:04:51
 Copyright (C) 2017 TURBOMOLE GmbH, Karlsruhe


    2018-04-03 20:37:10.362 



                              R I C C 2 - PROGRAM

                          the quantum chemistry groups
                             at the universities in
                           Karlsruhe, Bochum & Mainz
                                   Germany



   *-----------------------------------------------------------------------*
   |                     program will use  8 thread(s)                     |
   *-----------------------------------------------------------------------*


              +--------------------------------------------------+
              | Atomic coordinate, charge and isotop information |
              +--------------------------------------------------+

                    atomic coordinates            atom    charge  isotop
         -0.07022705    6.58471984   -2.12953568    c      6.000     0
          0.01788131   -6.60597466    2.18262939    c      6.000     0
        -10.47733195   -1.15156774    0.76159039    c      6.000     0
        -10.43720241    0.76921354   -1.45862743    c      6.000     0
         -0.70816992    8.79376523   -4.00480520    c      6.000     0
         -0.62552280   -8.76395014    4.11567092    c      6.000     0
        -12.85290424   -2.81665151    0.62332160    c      6.000     0
        -12.87467286    2.34808881   -1.48486653    c      6.000     0
         -5.66828316   -0.54582576    3.79962708    c      6.000     0
         -5.42524398    0.35103624   -4.18261016    c      6.000     0
        -15.26825803   -1.22071958    0.58680894    c      6.000     0
        -15.22785296    0.66621088   -1.61032023    c      6.000     0
          8.85118286    4.27187556   -5.47932630    c      6.000     0
          8.68319791   -3.60319941    5.68556591    c      6.000     0
          6.27548233  -10.04797976   -4.26578793    c      6.000     0
          5.73938621    9.92075164    4.78391790    c      6.000     0
          3.72092822    7.38086801   -0.01809644    c      6.000     0
          3.93702963   -7.37593023    0.30771665    c      6.000     0
         -0.45733000    7.48477127    0.51639421    c      6.000     0
         -0.20194553   -7.62884745   -0.43598216    c      6.000     0
          2.82566541   -6.06522911    2.27074070    c      6.000     0
          2.75581850    6.15177445   -2.10591131    c      6.000     0
          7.93955317    6.58699427   -1.40985710    c      6.000     0
          8.05106708   -6.35538410    1.84817865    c      6.000     0
         -4.15910330   -4.42867209    1.31361046    c      6.000     0
         -4.20451462    4.24674202   -1.56493584    c      6.000     0
          4.41114307    5.11389967   -3.91201261    c      6.000     0
          4.35148892   -4.82110274    4.05890569    c      6.000     0
         -1.86299248   -4.49938583    2.76569575    c      6.000     0
         -1.83522846    4.43073887   -2.87924249    c      6.000     0
          6.55450805   -7.61423046   -0.04780062    c      6.000     0
          6.30880926    7.65437733    0.49646877    c      6.000     0
         -8.28764290    2.46447120   -1.21461653    n      7.000     0
         -8.25726051   -2.76968641    0.66519291    n      7.000     0
          7.03533033    5.35036966   -3.57667974    c      6.000     0
          6.99615822   -4.95054528    3.83855164    c      6.000     0
         -6.01922700    2.38096187   -2.29717323    c      6.000     0
         -6.07177138   -2.60714038    1.89975400    c      6.000     0
         -4.49428333   -6.16659142   -0.84165741    c      6.000     0
         -4.72573652    5.92682828    0.60441744    c      6.000     0
         -2.34389952   -7.61507488   -1.78434097    c      6.000     0
         -2.67405712    7.38203792    1.73182203    c      6.000     0
          7.38986589    8.81469527    2.74304308    c      6.000     0
          7.78731539   -8.91196670   -2.13395401    c      6.000     0
          2.10892669   -8.45464801   -1.28876406    o      8.000     0
          1.78354360    8.31189001    1.53734555    o      8.000     0
         10.57911141   -6.44228447    1.69860976    o      8.000     0
         10.45414318    6.70427560   -1.09651675    o      8.000     0
          3.33664920   -3.47903709    5.95943478    o      8.000     0
          3.53107435    3.87774475   -5.94754083    o      8.000     0
          9.74330525    8.88961024    3.02819509    o      8.000     0
         10.15002456   -9.06654920   -2.21735679    o      8.000     0
         -6.53686022   -6.30316442   -2.06670426    o      8.000     0
         -6.85236851    5.99106975    1.68168670    o      8.000     0
         -1.38492942   -3.13766699    4.63946747    o      8.000     0
         -1.19915768    3.13701174   -4.75773608    o      8.000     0
         10.70024595    7.61451520    0.58836523    h      1.000     0
         10.94846640   -7.51313324    0.13824756    h      1.000     0
         -8.38762219    3.92586824    0.13094158    h      1.000     0
         -8.22581061   -4.24785799   -0.66411349    h      1.000     0
          1.65292243    3.58034041   -5.69287043    h      1.000     0
          1.44743392   -3.33006148    5.64543449    h      1.000     0
        -10.49339417   -0.08745018    2.53359590    h      1.000     0
        -10.29673801   -0.29358361   -3.22596384    h      1.000     0
         -2.51515188   -8.44476100   -3.64874292    h      1.000     0
         -2.96912166    8.12203491    3.61779046    h      1.000     0
        -12.93286250    3.50875240    0.23563291    h      1.000     0
        -12.75258861   -3.97561654   -1.09653197    h      1.000     0
        -12.84484848   -4.11917409    2.23133479    h      1.000     0
        -12.80376546    3.65094436   -3.09114052    h      1.000     0
        -15.44207328   -0.18831807    2.37952357    h      1.000     0
        -15.24273976   -0.36947851   -3.40972808    h      1.000     0
         -5.45730845   -1.35596254    5.68875227    h      1.000     0
         -3.65110392   -0.56982893   -3.67462410    h      1.000     0
        -16.91870820   -2.46177013    0.44615847    h      1.000     0
        -16.92769681    1.84673624   -1.58342157    h      1.000     0
         -3.89396989    0.43138363    3.40886512    h      1.000     0
         -6.91571876   -1.06451474   -4.28022193    h      1.000     0
          7.64410803   -2.09654661    6.63783737    h      1.000     0
          7.95566906    2.74961169   -6.54530425    h      1.000     0
         -7.20984995    0.81696409    3.79027226    h      1.000     0
         -5.11930553    1.18285986   -6.04877742    h      1.000     0
         10.33179178   -2.81782582    4.71739429    h      1.000     0
         10.55079411    3.56412037   -4.54540443    h      1.000     0
          7.58795915  -10.86000844   -5.63195318    h      1.000     0
          6.95851055   10.69960374    6.25225206    h      1.000     0
          0.58611877  -10.39617232    3.75170311    h      1.000     0
          0.41908421   10.45449541   -3.51858745    h      1.000     0
          4.50908156    8.46039223    5.57871995    h      1.000     0
          5.11188201   -8.59433136   -5.16812527    h      1.000     0
         -0.27801927   -8.06586206    6.02770391    h      1.000     0
         -0.24557900    8.19231021   -5.92542250    h      1.000     0
         -2.71684433    9.26594574   -3.88863136    h      1.000     0
         -2.60737124   -9.31986531    3.92879655    h      1.000     0
          4.98603508  -11.50525469   -3.56607286    h      1.000     0
          4.51144084   11.39836917    4.01854664    h      1.000     0
          9.45502064    5.72243639   -6.83216754    h      1.000     0
          9.39686712   -4.90282287    7.13474035    h      1.000     0
 
       center of nuclear mass  :    0.03657442   -0.02538161   -0.00056274
       center of nuclear charge:   -0.06565610   -0.02577846   -0.00439295

              +--------------------------------------------------+
              |               basis set information              |
              +--------------------------------------------------+

              we will work with the 1s 3p 5d 7f 9g ... basis set
              ...i.e. with spherical basis functions...

   type   atoms  prim   cont   basis
   ---------------------------------------------------------------------------
    c       42     50     30   cc-pVTZ   [4s3p2d1f|18s5p2d1f]
    n        2     50     30   cc-pVTZ   [4s3p2d1f|18s5p2d1f]
    o       12     50     30   cc-pVTZ   [4s3p2d1f|18s5p2d1f]
    h       42     16     14   cc-pVTZ   [3s2p1d|5s2p1d]
   ---------------------------------------------------------------------------
   total:   98   3472   2268
   ---------------------------------------------------------------------------

   total number of primitive shells          :   86
   total number of contracted shells         :  812
   total number of cartesian basis functions : 2590
   total number of SCF-basis functions       : 2268


 symmetry group of the molecule :   c1 

 the group has the following generators :
   c1(z)

    1 symmetry operations found

 there are 1 real representations :   a   


   =========================================================================


     restricted closed shell calculation for the wavefunction models:
               MP2        - Second Order Moeller Plesset PT


     global parameters for ricc2 program:

        hard restart (reuse of interm.) :  disabled
        soft restart (reuse of vectors) :  disabled
        threshold for vector function   :    0.100000E-05
        convergence threshold energy    :    0.100000E-06
        linear dependence threshold     :    0.100000E-13
        global print level              :      1
        maximum number of iterations    :   300
        maximum number DIIS vectors     :    10
        max. dim. of reduced space      :   100
        core memory limit (MB)          : 22888


     MP2 energy only: Energy will be calculated directly from T2 amplitudes!

     Scratch Directory : 


   =========================================================================

    der. integral neglect threshold  :  0.10E-07
    integral neglect threshold       :  0.13E-11
    integral storage threshold THIZE :  0.10E-04
    integral storage threshold THIME :         5


                  +------------------------------------------+
                  |     Auxiliary basis set information      |
                  +------------------------------------------+

              we will work with the 1s 3p 5d 7f 9g ... basis set
              ...i.e. with spherical basis functions...

   type   atoms  prim   cont   basis
   ---------------------------------------------------------------------------
    c       42     81     81   cc-pVTZ   [8s6p5d3f1g|8s6p5d3f1g]
    n        2     81     81   cc-pVTZ   [8s6p5d3f1g|8s6p5d3f1g]
    o       12     81     81   cc-pVTZ   [8s6p5d3f1g|8s6p5d3f1g]
    h       42     30     30   cc-pVTZ   [4s3p2d1f|4s3p2d1f]
   ---------------------------------------------------------------------------
   total:   98   5796   5796
   ---------------------------------------------------------------------------

   total number of primitive shells          :   79
   total number of contracted shells         : 1708
   total number of cartesian basis functions : 7126
   total number of SCF-basis functions       : 5796


 maximum number of shells which are related by symmetry :  1


 The symmetry information takes   1 MB

*---------------------------------------------------------------------*
|               simplified C1 algorithm will be applied               |
*---------------------------------------------------------------------*
  MOs are in ASCII format !


 reading orbital data $scfmo  from file mos
 orbital characterization : scfconv=7



              +--------------------------------------------+
              | list of orbitals that will be kept frozen: |
              +--------------------------------------------+
              |   irrep   index      energy     occ/vir    |
              +--------------------------------------------+
              |   a         1      -20.6453     occupied   |
              |   a         2      -20.6447     occupied   |
              |   a         3      -20.5726     occupied   |
              |   a         4      -20.5717     occupied   |
              |   a         5      -20.5619     occupied   |
              |   a         6      -20.5609     occupied   |
              |   a         7      -20.5563     occupied   |
              |   a         8      -20.5558     occupied   |
              |   a         9      -20.5512     occupied   |
              |   a        10      -20.5508     occupied   |
              |   a        11      -20.5477     occupied   |
              |   a        12      -20.5477     occupied   |
              |   a        13      -15.6230     occupied   |
              |   a        14      -15.6228     occupied   |
              |   a        15      -11.3656     occupied   |
              |   a        16      -11.3653     occupied   |
              |   a        17      -11.3648     occupied   |
              |   a        18      -11.3644     occupied   |
              |   a        19      -11.3627     occupied   |
              |   a        20      -11.3624     occupied   |
              |   a        21      -11.3520     occupied   |
              |   a        22      -11.3517     occupied   |
              |   a        23      -11.3505     occupied   |
              |   a        24      -11.3501     occupied   |
              |   a        25      -11.3375     occupied   |
              |   a        26      -11.3375     occupied   |
              |   a        27      -11.3257     occupied   |
              |   a        28      -11.3254     occupied   |
              |   a        29      -11.3230     occupied   |
              |   a        30      -11.3226     occupied   |
              |   a        31      -11.3129     occupied   |
              |   a        32      -11.3123     occupied   |
              |   a        33      -11.2925     occupied   |
              |   a        34      -11.2924     occupied   |
              |   a        35      -11.2607     occupied   |
              |   a        36      -11.2607     occupied   |
              |   a        37      -11.2553     occupied   |
              |   a        38      -11.2553     occupied   |
              |   a        39      -11.2548     occupied   |
              |   a        40      -11.2542     occupied   |
              |   a        41      -11.2542     occupied   |
              |   a        42      -11.2541     occupied   |
              |   a        43      -11.2503     occupied   |
              |   a        44      -11.2501     occupied   |
              |   a        45      -11.2482     occupied   |
              |   a        46      -11.2482     occupied   |
              |   a        47      -11.2428     occupied   |
              |   a        48      -11.2427     occupied   |
              |   a        49      -11.2404     occupied   |
              |   a        50      -11.2402     occupied   |
              |   a        51      -11.2342     occupied   |
              |   a        52      -11.2338     occupied   |
              |   a        53      -11.2218     occupied   |
              |   a        54      -11.2213     occupied   |
              |   a        55      -11.2023     occupied   |
              |   a        56      -11.2018     occupied   |
              +--------------------------------------------+



   Molecular Orbital Statistic:
   ============================

   -----------------------------
   orbitals in total:
   -----------------------------
    frozen occupied :     56
    active occupied :    146
    active virtual  :   2066
    frozen virtual  :      0
    all together    :   2268
   -----------------------------


     time in riccmos       cpu: 14.47 sec    wall:  7.17 sec    ratio:  2.0

     total memory allocated for calculation of (Q|P)**(-1/2) : 385 MiB


     calculation of (P|Q) ...
     time in lp2sym        cpu: 10.23 sec    wall:  1.34 sec    ratio:  7.7


     calculation of the Cholesky decomposition of (P|Q)**(-1) ...
     time in invmetri      cpu: 46.58 sec    wall:  7.48 sec    ratio:  6.2

   threshold for RMS(d[D]) in SCF was     :  0.10E-06
   integral neglect threshold             :  0.13E-11
   derivative integral neglect threshold  :  0.10E-07


   =========================================================================

     Energy of reference wave function is -2623.0771385170001
     Maximum orbital residual is           0.1789669635091E-05


     Number of symmetry-nonredundant auxiliary basis functions:     5796

     Block lengths for integral files:
        frozen occupied (BOI):        3 MiB
        active occupied (BJI):        7 MiB
        active virtual  (BAI):       92 MiB
        frozen virtual  (BGI):        0 MiB
               general  (BTI):      101 MiB

   =========================================================================




   **************************************************************************
   *                                                                        *
   *          OPTIMIZATION OF THE GROUND STATE CLUSTER AMPLITUDES           *
   *                                                                        *
   **************************************************************************


   Iter.   MP2 energy       Norm(Omega)    Norm(t1)  Norm(t2)     cpu    wall
   ...........................................................................
    1  -2633.0875931964     ------          0.00000   1.04114  671.20   87.81
   ...........................................................................


     time in total         cpu: 11 h 11 min  wall:  1 h 27 min  ratio:  7.6


     **********************************************************************
     *                                                                    *
     *   RHF  energy                             :  -2623.0771385170      *
     *   MP2 correlation energy (doubles)        :    -10.0104546794      *
     *                                                                    *
     *   Final MP2 energy                        :  -2633.0875931964      *
     *                                                                    *
     *    E(S)   =     -6.1014319833      E(T)   =     -3.9090226961      *
     *    E(OS)  =     -7.4044395486      E(SS)  =     -2.6060151307      *
     *                                                                    *
     *   SCS-MP2 energy                          :  -2632.8311376856      *
     *   (computed with  C(OS) =   1.2000  and  C(SS) =   0.3333)         *
     *                                                                    *
     *   SOS-MP2 energy                          :  -2632.7029099302      *
     *   (computed with  C(OS) =   1.3000)                                *
     *                                                                    *
     *   Norm of MP1 T2 amplitudes               :      1.0411380284      *
     *                                                                    *
     **********************************************************************



    ------------------------------------------------------------------------
         total  cpu-time : 12 hours  3 minutes and 57 seconds
         total wall-time :  1 hours 39 minutes and 29 seconds
    ------------------------------------------------------------------------

   ****  ricc2 : all done  ****


    2018-04-03 22:16:39.809 

