 operating system is UNIX !

 ridft (c-9-331.gp.local) : TURBOMOLE V7.2 ( 21454 ) 4 Oct 2017 at 12:48:15
 Copyright (C) 2017 TURBOMOLE GmbH, Karlsruhe


    2018-05-18 15:42:10.535 



                                  r i d f t

                        DFT program with RI approximation 
                                for coulomb part 




                                                 
                                 References:     
                                                 
          TURBOMOLE:                             
              R. Ahlrichs, M. Baer, M. Haeser, H. Horn, and
              C. Koelmel
              Electronic structure calculations on workstation
              computers: the program system TURBOMOLE
              Chem. Phys. Lett. 162: 165 (1989)
          Density Functional:                              
              O. Treutler and R. Ahlrichs                      
              Efficient Molecular Numerical Integration Schemes
              J. Chem. Phys. 102: 346 (1995)                   
          Parallel Version:                                
              Performance of parallel TURBOMOLE for Density    
              Functional Calculations                          
              M. v. Arnim and R. Ahlrichs                      
              J. Comp. Chem. 19: 1746 (1998)                   
          RI-J Method:                                     
              Auxiliary Basis Sets to approximate Coulomb      
              Potentials                                       
              Chem. Phys. Lett. 240: 283 (1995)                
              K. Eichkorn, O. Treutler, H. Oehm, M. Haeser     
              and R. Ahlrichs                                  
              Chem. Phys. Lett. 242: 652 (1995)                
                                                           
              Auxiliary Basis Sets for Main Row Atoms and their
              Use to approximate Coulomb Potentials            
              K. Eichkorn, F. Weigend, O. Treutler and         
              R. Ahlrichs                                      
              Theo. Chem. Acc. 97: 119 (1997)                   
                                                           
              Accurate Coulomb-fitting basis sets for H to Rn 
              F. Weigend                                        
              Phys. Chem. Chem. Phys. 8: 1057 (2006)            
                                                           
          Multipole accelerated RI-J (MARI-J):             
              Fast evaluation of the Coulomb potential for     
              electron densities using multipole accelerated   
              resolution of identity approximation             
              M. Sierka, A. Hogekamp and R. Ahlrichs           
              J. Chem. Phys. 118: 9136 (2003)                  
          RI-JK Method:                                     
              A fully direct RI-HF algorithm: Implementation,
              optimised auxiliary basis sets, demonstration of
              accuracy and efficiency                         
              F. Weigend                                      
              Phys. Chem. Chem. Phys. 4: 4285 (2002)           
          Two-component HF and DFT with spin-orbit coupling:  
              Self-consistent treatment of spin-orbit         
              interactions with efficient Hartree-Fock and    
              density functional methods                      
              M. K. Armbruster, F. Weigend, C. van Wüllen and 
              W. Klopper                                      
              Phys. Chem. Chem. Phys. 10: 1748 (2008)         
          Relativistic all-electron 2c calculations           
              An efficient implementation of two-component    
              relativistic exact-decoupling methods for large 
              molecules                                       
              D. Peng, N. Middendorf, F. Weigend, M. Reiher   
              J. Chem. Phys. 138, 184105 (2013)               
                                         




              +--------------------------------------------------+
              |      general information about current run       |
              +--------------------------------------------------+

 
 TPSS meta-GGA functional
 exchange:    LDA + TPSS
 correlation: LDA (PW) + TPSS
 A DFT calculation using the RI-J approximation will be carried out.
 Allocatable memory for RI due to $ricore (MB):                   500


              +--------------------------------------------------+
              | Atomic coordinate, charge and isotop information |
              +--------------------------------------------------+

                    atomic coordinates            atom    charge  isotop
          0.72286221   -0.13342784    1.44922307    c      6.000     0
         -1.96652361    0.74986460    2.00487836    c      6.000     0
         -3.34779081   -0.53195838    1.16847480    h      1.000     0
         -2.31438118    0.82341998    4.03554587    h      1.000     0
         -2.29425231    2.63375749    1.23416246    h      1.000     0
          1.11653991   -2.77188457    2.54730908    c      6.000     0
          3.02906809   -3.44487625    2.17337942    h      1.000     0
          0.82953040   -2.77174821    4.58879681    h      1.000     0
         -0.20771691   -4.11711656    1.71835424    h      1.000     0
          2.60455104    1.69779678    2.64400926    c      6.000     0
          4.54364612    1.10632267    2.26905776    h      1.000     0
          2.35040532    1.78763235    4.68786235    h      1.000     0
          2.35908342    3.59997103    1.88774326    h      1.000     0
          1.13754132   -0.20982422   -1.40424905    c      6.000     0
          0.86778458    1.65736370   -2.23535363    h      1.000     0
          3.04943970   -0.83801691   -1.85131197    h      1.000     0
         -0.18808592   -1.50715074   -2.30399320    h      1.000     0
 
       center of nuclear mass  :    0.72300536   -0.13350146    1.44814904
       center of nuclear charge:    0.72301323   -0.13350598    1.44808911

              +--------------------------------------------------+
              |               basis set information              |
              +--------------------------------------------------+

              we will work with the 1s 3p 5d 7f 9g ... basis set
              ...i.e. with spherical basis functions...

   type   atoms  prim   cont   basis
   ---------------------------------------------------------------------------
    c        5     77     57   def2-QZVP   [7s4p3d2f1g|15s8p3d2f1g]
    h       12     33     30   def2-QZVP   [4s3p2d1f|7s3p2d1f]
   ---------------------------------------------------------------------------
   total:   17    781    645
   ---------------------------------------------------------------------------

   total number of primitive shells          :   42
   total number of contracted shells         :  205
   total number of cartesian basis functions :  780
   total number of SCF-basis functions       :  645


 integral neglect threshold       :  0.43E-13
 integral storage threshold THIZE :  0.10E-04
 integral storage threshold THIME :         5

 RI-J AUXILIARY BASIS SET information:

              we will work with the 1s 3p 5d 7f 9g ... basis set
              ...i.e. with spherical basis functions...

   type   atoms  prim   cont   basis
   ---------------------------------------------------------------------------
    c        5     70     49   def2-QZVP   [6s4p3d1f1g|12s5p4d2f1g]
    h       12     16     11   def2-QZVP   [3s1p1d|5s2p1d]
   ---------------------------------------------------------------------------
   total:   17    542    377
   ---------------------------------------------------------------------------

   total number of primitive shells          :   32
   total number of contracted shells         :  135
   total number of cartesian basis functions :  449
   total number of SCF-basis functions       :  377


 symmetry group of the molecule :   c1 

 the group has the following generators :
   c1(z)

    1 symmetry operations found

 there are 1 real representations :   a   

 maximum number of shells which are related by symmetry :  1


    mo occupation :
   irrep   mo's   occupied
    a      645       21
 
 number of basis functions   :                    645
 number of occupied orbitals :                     21
 
  
           ------------------
           density functional
           ------------------
 TPSS meta-GGA functional
 exchange:    LDA + TPSS
 correlation: LDA (PW) + TPSS

 iterations will be done with small grid
  
 spherical integration : Lebedev's spherical grid
 spherical gridsize    :                     5
    i.e. gridpoints    :                   590
 value for diffuse not defined
 radial integration    : Chebyshev 2nd kind (scaling 3)
 radial gridsize       :                     8
 integration cells     :                    17
 partition function    : becke
 partition sharpness   :                     3
  

 biggest AO integral is expected to be     5.262544080
  
           ------------------------
               RI-J - INFORMATION
           ------------------------
 Contributions to RI integral batches: 
  neglected integral batches:                  1946
  direct contribution:                         7384
  memory contribution:                 11785
 Memory core needed for (P|Q) and Cholesky      2 MByte
 Memory core minimum needed except of (P|Q)     2 MByte
 Total minimum memory core needed (sum)         3 MByte
  
 ****************************************
 Memory allocated for RI-J   430 MByte
 ****************************************
                                            

          ------------------------
          nuclear repulsion energy  :   199.354937352    
          ------------------------


         -----------------
         -S,T+V- integrals
         -----------------

 1e-integrals will be neglected if expon. factor < 0.428457E-14
 
   Difference densities algorithm switched on.
   The maximal number of linear combinations of
   difference densities is                    20 .

 DIIS switched on: error vector is FDS-SDF
 Max. Iterations for DIIS is     :   4
 DIIS matrix (see manual) 
    Scaling factor of diagonals  :  1.200
    threshold for scaling factor :  0.000

 scf convergence criterion : increment of total energy < .1000000D-08
                  and increment of one-electron energy < .1000000D-05

  MOs are in ASCII format !


 automatic virtual orbital shift switched on 
      shift if e(lumo)-e(homo) < 0.10000000    


 reading orbital data $scfmo  from file mos
 orbital characterization : expanded
 mo provided and orthogonalized by Cholesky decomposition

 DSCF restart information will be dumped onto file mos


 Starting SCF iterations

          Overall gridpoints after grid construction =         72586

 ITERATION  ENERGY          1e-ENERGY        2e-ENERGY     NORM[dD(SAO)]  TOL
   1  -197.18713379607    -650.67274209     254.13067094    0.000D+00 0.427D-13
                            Exc = -30.6419754266     Coul =  284.772646368    
                              N = 41.999859844    
                            current damping = 0.700
 
          max. resid. norm for Fia-block=  4.764D-01 for orbital      6a         
          max. resid. fock norm         =  4.292D+01 for orbital    586a         

 ITERATION  ENERGY          1e-ENERGY        2e-ENERGY     NORM[dD(SAO)]  TOL
   2  -197.73107771742    -656.40604619     259.32003112    0.135D+01 0.369D-13
                            Exc = -31.2822044536     Coul =  290.602235577    
                              N = 41.999884007    
                            current damping = 0.650
 
          Norm of current diis error:  2.7640    
          max. resid. norm for Fia-block=  1.071D-01 for orbital      6a         
          max. resid. fock norm         =  1.528D-01 for orbital    601a         

 ITERATION  ENERGY          1e-ENERGY        2e-ENERGY     NORM[dD(SAO)]  TOL
   3  -197.84792308967    -657.42231490     260.21945446    0.366D+00 0.219D-13
                            Exc = -31.5009894903     Coul =  291.720443953    
                              N = 41.999899682    
                            current damping = 0.550
 
          Norm of current diis error:  1.3131    
          max. resid. norm for Fia-block=  4.890D-02 for orbital      6a         
          max. resid. fock norm         =  5.422D-02 for orbital      6a         

 ITERATION  ENERGY          1e-ENERGY        2e-ENERGY     NORM[dD(SAO)]  TOL
   4  -197.88247981585    -658.75360438     261.51618721    0.157D+00 0.176D-13
                            Exc = -31.6744228889     Coul =  293.190610100    
                              N = 41.999911101    
                            current damping = 0.450
 
          Norm of current diis error: 0.47556    
          max. resid. norm for Fia-block=  1.977D-02 for orbital      6a         
          max. resid. fock norm         =  2.249D-02 for orbital      6a         

 ITERATION  ENERGY          1e-ENERGY        2e-ENERGY     NORM[dD(SAO)]  TOL
   5  -197.88770201489    -658.79047831     261.54783895    0.622D-01 0.157D-13
                            Exc = -31.7222476115     Coul =  293.270086557    
                              N = 41.999916200    
                            current damping = 0.300
 
          Norm of current diis error: 0.19422    
          max. resid. norm for Fia-block=  7.499D-03 for orbital     10a         
          max. resid. fock norm         =  8.469D-03 for orbital     10a         
          mo-orthogonalization: Cholesky decomposition

 ITERATION  ENERGY          1e-ENERGY        2e-ENERGY     NORM[dD(SAO)]  TOL
   6  -197.88852999488    -659.17263447     261.92916712    0.241D-01 0.148D-13
                            Exc = -31.7578710072     Coul =  293.687038129    
                              N = 41.999918423    
                            current damping = 0.150
 
          Norm of current diis error: 0.74903E-01
          max. resid. norm for Fia-block=  2.310D-03 for orbital     21a         
          max. resid. fock norm         =  4.531D-03 for orbital    641a         

 ITERATION  ENERGY          1e-ENERGY        2e-ENERGY     NORM[dD(SAO)]  TOL
   7  -197.88863582720    -659.05367378     261.81010060    0.551D-02 0.144D-13
                            Exc = -31.7565279049     Coul =  293.566628503    
                              N = 41.999918938    
                            current damping = 0.200
 
          Norm of current diis error: 0.24271E-01
          max. resid. norm for Fia-block=  5.546D-04 for orbital     10a         
          max. resid. fock norm         =  1.267D-03 for orbital    641a         

 ITERATION  ENERGY          1e-ENERGY        2e-ENERGY     NORM[dD(SAO)]  TOL
   8  -197.88864646325    -659.08555165     261.84196783    0.142D-02 0.142D-13
                            Exc = -31.7583154060     Coul =  293.600283240    
                              N = 41.999919032    
                            current damping = 0.250
 
          Norm of current diis error: 0.23335E-02
          max. resid. norm for Fia-block=  8.611D-05 for orbital     12a         
          max. resid. fock norm         =  2.086D-04 for orbital    635a         

 ITERATION  ENERGY          1e-ENERGY        2e-ENERGY     NORM[dD(SAO)]  TOL
   9  -197.88864654294    -659.09251355     261.84892966    0.449D-03 0.141D-13
                            Exc = -31.7589652229     Coul =  293.607894881    
                              N = 41.999919079    
                            current damping = 0.100
 
          Norm of current diis error: 0.15513E-02
          max. resid. norm for Fia-block=  3.098D-05 for orbital     21a         
          max. resid. fock norm         =  8.271D-05 for orbital    642a         

 ITERATION  ENERGY          1e-ENERGY        2e-ENERGY     NORM[dD(SAO)]  TOL
  10  -197.88864659272    -659.08998157     261.84639763    0.319D-04 0.140D-13
                            Exc = -31.7587642396     Coul =  293.605161869    
                              N = 41.999919074    
                            current damping = 0.150
 
          Norm of current diis error: 0.78710E-04
          max. resid. norm for Fia-block=  3.531D-06 for orbital      6a         
          max. resid. fock norm         =  1.206D-05 for orbital    635a         
          mo-orthogonalization: Cholesky decomposition

 ITERATION  ENERGY          1e-ENERGY        2e-ENERGY     NORM[dD(SAO)]  TOL
  11  -197.88864659290    -659.08996668     261.84638274    0.373D-05 0.139D-13
                            Exc = -31.7587677653     Coul =  293.605150503    
                              N = 41.999919075    
                            current damping = 0.050
 
          Norm of current diis error: 0.18086E-04
          max. resid. norm for Fia-block=  7.460D-07 for orbital     13a         
          max. resid. fock norm         =  2.495D-06 for orbital    632a         

 ITERATION  ENERGY          1e-ENERGY        2e-ENERGY     NORM[dD(SAO)]  TOL
  12  -197.88864659289    -659.09000438     261.84642043    0.764D-06 0.138D-13
                            Exc = -31.7587702704     Coul =  293.605190703    
                              N = 41.999919076    
                            current damping = 0.100
 
          Norm of current diis error: 0.84220E-05
          max. resid. norm for Fia-block=  1.874D-07 for orbital     21a         
          max. resid. fock norm         =  3.875D-07 for orbital    635a         

 ITERATION  ENERGY          1e-ENERGY        2e-ENERGY     NORM[dD(SAO)]  TOL
  13  -197.88864659289    -659.08999281     261.84640887    0.294D-06 0.137D-13
                            Exc = -31.7587698024     Coul =  293.605178670    
                              N = 41.999919076    
                            current damping = 0.150
 
          Norm of current diis error: 0.13768E-05
          max. resid. norm for Fia-block=  5.619D-08 for orbital     21a         
          max. resid. fock norm         =  1.309D-07 for orbital    642a         

 ENERGY CONVERGED !

          Overall gridpoints after grid construction =        244151

 ITERATION  ENERGY          1e-ENERGY        2e-ENERGY     NORM[dD(SAO)]  TOL
  14  -197.88855053855    -659.08999097     261.84650308    0.128D-06 0.137D-13
                            Exc = -31.7586736296     Coul =  293.605176710    
                              N = 42.000009714    
                            current damping = 0.200
 
          Norm of current diis error: 0.10083E-05
          max. resid. norm for Fia-block=  3.120D-08 for orbital     21a         
          max. resid. fock norm         =  6.517D-08 for orbital    645a         

 End of SCF iterations

   convergence criteria satisfied after    14 iterations


                  ------------------------------------------ 
                 |  total energy      =   -197.88855053855  |
                  ------------------------------------------ 
                 :  kinetic energy    =    196.95931861365  :
                 :  potential energy  =   -394.84786915221  :
                 :  virial theorem    =      1.99530426635  :
                 :  wavefunction norm =      1.00000000000  :
                  .......................................... 


 <geterg> : there is no data group $energy 


 <skperg> : $end is missing 


 orbitals $scfmo  will be written to file mos

    irrep                 17a         18a         19a         20a         21a   
 eigenvalues H         -0.32620    -0.32620    -0.28380    -0.28379    -0.28370
            eV          -8.8764     -8.8763     -7.7226     -7.7223     -7.7199
 occupation              2.0000      2.0000      2.0000      2.0000      2.0000 

    irrep                 22a         23a         24a         25a         26a   
 eigenvalues H          0.00403     0.04711     0.04711     0.04714     0.05886
            eV           0.1096      1.2818      1.2819      1.2827      1.6017
 
 
 
 
 ==============================================================================
                           electrostatic moments
 ==============================================================================

 reference point for electrostatic moments:    0.00000   0.00000   0.00000

 
              nuc           elec       ->  total
 ------------------------------------------------------------------------------
                          charge      
 ------------------------------------------------------------------------------
          42.000000     -42.000000       0.000000
 
 ------------------------------------------------------------------------------
                       dipole moment  
 ------------------------------------------------------------------------------
   x      30.366556     -30.366673      -0.000117
   y      -5.607251       5.607327       0.000075
   z      60.819743     -60.819102       0.000641
 
   | dipole moment | =     0.0007 a.u. =     0.0017 debye 
 
 ------------------------------------------------------------------------------
                     quadrupole moment
 ------------------------------------------------------------------------------
  xx     155.840642    -182.385171     -26.544529
  yy     134.637993    -161.182754     -26.544761
  zz     221.755906    -248.300258     -26.544352
  xy      -4.054977       4.055110       0.000133
  xz      44.008560     -44.007857       0.000702
  yz      -8.126558       8.126257      -0.000301
 
     1/3  trace=     -26.544547
     anisotropy=       0.001390
 
 ==============================================================================
 


    ------------------------------------------------------------------------
         total  cpu-time :  5 minutes and 41 seconds
         total wall-time :  9 minutes and 28 seconds
    ------------------------------------------------------------------------

   ****  ridft : all done  ****


    2018-05-18 15:51:38.866 

