
   OpenMP run-time library returned nthreads = 28

 ricc2 (c-15-42) : TURBOMOLE V7.3 ( 22142 ) 4 Jul 2018 at 18:12:42
 Copyright (C) 2018 TURBOMOLE GmbH, Karlsruhe


    2019-04-02 00:07:43.311 



                              R I C C 2 - PROGRAM

                          the quantum chemistry groups
                             at the universities in
                           Karlsruhe, Bochum & Mainz
                                   Germany



   *-----------------------------------------------------------------------*
   |                     program will use 28 thread(s)                     |
   *-----------------------------------------------------------------------*


              +--------------------------------------------------+
              | Atomic coordinate, charge and isotop information |
              +--------------------------------------------------+

                    atomic coordinates            atom    charge  isotop
         -4.29977887   -0.25525464    1.57099334    c      6.000     0
         -4.70677445   -1.37558208   -0.10878464    h      1.000     0
         -4.20714230   -1.54663957    3.17251646    h      1.000     0
         -5.88087622    1.02979382    1.86591573    h      1.000     0
         -1.81734608    1.17026561    1.26498116    c      6.000     0
         -1.49042549    2.36297367    2.91906499    h      1.000     0
         -1.93919326    2.44803672   -0.35235528    h      1.000     0
          0.42802708   -0.59471630    0.90704170    c      6.000     0
          0.58476515   -1.84274587    2.54742251    h      1.000     0
          0.07398384   -1.82547309   -0.71580905    h      1.000     0
          2.91585059    0.79590450    0.50833539    c      6.000     0
          3.23452825    2.09338526    2.08332203    h      1.000     0
          2.77051739    1.97238901   -1.18163362    h      1.000     0
          5.15437226   -0.99562283    0.25976045    c      6.000     0
          4.89201256   -2.27374477   -1.33368809    h      1.000     0
          6.91923413    0.02209673   -0.03017633    h      1.000     0
          5.35774033   -2.14939329    1.95411878    h      1.000     0
         -0.91379878   -0.54398252    7.78803673    c      0.000     0
         -1.71242339   -2.65136777    7.41548369    o      0.000     0
         -2.45145450    1.45717230    8.22756715    o      0.000     0
         -4.15364819    0.78749013    8.15096570    h      0.000     0
          1.80791152    0.23017418    7.82055019    c      0.000     0
          2.99054573   -1.41422949    7.52168025    h      0.000     0
          2.14057403    1.61775026    6.34065921    h      0.000     0
          2.25636479    1.11702446    9.61919604    h      0.000     0
 
       center of nuclear mass  :   -0.13893261   -0.15427677    4.04472946
       center of nuclear charge:    0.47369333   -0.00860584    0.90206157

              +--------------------------------------------------+
              |               basis set information              |
              +--------------------------------------------------+

              we will work with the 1s 3p 5d 7f 9g ... basis set
              ...i.e. with spherical basis functions...

   type   atoms  prim   cont   basis
   ---------------------------------------------------------------------------
    c        7     77     55   cc-pVQZ   [5s4p3d2f1g|21s6p3d2f1g]
    h       16     32     30   cc-pVQZ   [4s3p2d1f|6s3p2d1f]
    o        2     77     55   cc-pVQZ   [5s4p3d2f1g|21s6p3d2f1g]
   ---------------------------------------------------------------------------
   total:   25   1205    975
   ---------------------------------------------------------------------------

   total number of primitive shells          :   78
   total number of contracted shells         :  295
   total number of cartesian basis functions : 1190
   total number of SCF-basis functions       :  975


 symmetry group of the molecule :   c1 

 the group has the following generators :
   c1(z)

    1 symmetry operations found

 there are 1 real representations :   a   


   =========================================================================


     restricted closed shell calculation for the wavefunction models:
               MP2        - Second Order Moeller Plesset PT


     global parameters for ricc2 program:

        hard restart (reuse of interm.) :  disabled
        soft restart (reuse of vectors) :  disabled
        threshold for vector function   :    0.100000E-05
        convergence threshold energy    :    0.100000E-06
        linear dependence threshold     :    0.100000E-13
        global print level              :      1
        maximum number of iterations    :   300
        maximum number DIIS vectors     :    10
        max. dim. of reduced space      :   100
        core memory limit (MB)          : *****


     MP2 energy only: Energy will be calculated directly from T2 amplitudes!

     Scratch Directory : 


   =========================================================================

    der. integral neglect threshold  :  0.10E-07
    integral neglect threshold       :  0.28E-11
    integral storage threshold THIZE :  0.10E-04
    integral storage threshold THIME :         5


                  +------------------------------------------+
                  |     Auxiliary basis set information      |
                  +------------------------------------------+

              we will work with the 1s 3p 5d 7f 9g ... basis set
              ...i.e. with spherical basis functions...

   type   atoms  prim   cont   basis
   ---------------------------------------------------------------------------
    c        7    132    132   cc-pVQZ   [8s7p6d5f3g1h|8s7p6d5f3g1h]
    h       16     55     55   cc-pVQZ   [5s4p3d2f1g|5s4p3d2f1g]
    o        2    132    132   cc-pVQZ   [8s7p6d5f3g1h|8s7p6d5f3g1h]
   ---------------------------------------------------------------------------
   total:   25   2068   2068
   ---------------------------------------------------------------------------

   total number of primitive shells          :   75
   total number of contracted shells         :  510
   total number of cartesian basis functions : 2749
   total number of SCF-basis functions       : 2068


 maximum number of shells which are related by symmetry :  1


 The symmetry information takes   1 MB

*---------------------------------------------------------------------*
|               simplified C1 algorithm will be applied               |
*---------------------------------------------------------------------*
  MOs are in ASCII format !


 reading orbital data $scfmo  from file mos
 orbital characterization : scfconv=9



              +--------------------------------------------+
              | list of orbitals that will be kept frozen: |
              +--------------------------------------------+
              |   irrep   index      energy     occ/vir    |
              +--------------------------------------------+
              |   a         1      -11.2116     occupied   |
              |   a         2      -11.2115     occupied   |
              |   a         3      -11.2092     occupied   |
              |   a         4      -11.2061     occupied   |
              |   a         5      -11.2060     occupied   |
              +--------------------------------------------+



   Molecular Orbital Statistic:
   ============================

   -----------------------------
   orbitals in total:
   -----------------------------
    frozen occupied :      5
    active occupied :     16
    active virtual  :    954
    frozen virtual  :      0
    all together    :    975
   -----------------------------


     time in riccmos       cpu: 11.73 sec    wall:  1.25 sec    ratio:  9.4

     total memory allocated for calculation of (Q|P)**(-1/2) : 49 MiB


     calculation of (P|Q) ...
     time in lp2sym        cpu:  4.56 sec    wall:  0.16 sec    ratio: 28.0


     calculation of the Cholesky decomposition of (P|Q)**(-1) ...
     time in invmetri      cpu: 22.95 sec    wall:  0.96 sec    ratio: 24.0

   threshold for RMS(d[D]) in SCF was     :  0.10E-06
   integral neglect threshold             :  0.28E-11
   derivative integral neglect threshold  :  0.10E-07


   =========================================================================

     Energy of reference wave function is  -196.4158524455000
     Maximum orbital residual is           0.7158315837241E-07


     Number of symmetry-nonredundant auxiliary basis functions:     2068

     Block lengths for integral files:
        frozen occupied (BOI):        1 MiB
        active occupied (BJI):        1 MiB
        active virtual  (BAI):       16 MiB
        frozen virtual  (BGI):        0 MiB
               general  (BTI):       16 MiB

   =========================================================================




   **************************************************************************
   *                                                                        *
   *          OPTIMIZATION OF THE GROUND STATE CLUSTER AMPLITUDES           *
   *                                                                        *
   **************************************************************************


   Iter.   MP2 energy       Norm(Omega)   Norm(t1)  Norm(t2)     cpu    wall
   ...........................................................................
    1   -197.3625844948     ------          0.00000   0.32721    7.90    0.29
   ...........................................................................


     time in total         cpu:  7 min 55 s  wall:  0 min 17 s  ratio: 27.6


     **********************************************************************
     *                                                                    *
     *   RHF  energy                             :   -196.4158524455      *
     *   MP2 correlation energy (doubles)        :     -0.9467320493      *
     *                                                                    *
     *   Final MP2 energy                        :   -197.3625844948      *
     *                                                                    *
     *    E(S)   =     -0.6485256425      E(T)   =     -0.2982064068      *
     *    E(OS)  =     -0.7479277781      E(SS)  =     -0.1988042712      *
     *                                                                    *
     *   SCS-MP2 energy                          :   -197.3796338696      *
     *   (computed with  C(OS) =   1.2000  and  C(SS) =   0.3333)         *
     *                                                                    *
     *   SOS-MP2 energy                          :   -197.3881585570      *
     *   (computed with  C(OS) =   1.3000)                                *
     *                                                                    *
     *   Norm of MP1 T2 amplitudes               :      0.3272138969      *
     *                                                                    *
     **********************************************************************



    ------------------------------------------------------------------------
         total  cpu-time : 10 minutes and 52 seconds
         total wall-time :  25.59 seconds
    ------------------------------------------------------------------------

   ****  ricc2 : all done  ****


    2019-04-02 00:08:08.868 

