
   OpenMP run-time library returned nthreads = 28
 operating system is UNIX !

 dscf (c-14-38) : TURBOMOLE V7.3 ( 22142 ) 4 Jul 2018 at 18:12:42
 Copyright (C) 2018 TURBOMOLE GmbH, Karlsruhe


    2019-04-01 22:01:18.932 



                             d s c f - program

                   idea & directorship : reinhart ahlrichs
                   program development : marco haeser
                                         michael baer
                           dft version : oliver treutler


                          quantum chemistry group
                          universitaet  karlsruhe
                                  germany




                          References             
                                                 
          TURBOMOLE:                             
              R. Ahlrichs, M. Baer, M. Haeser, H. Horn, and
              C. Koelmel
              Electronic structure calculations on workstation
              computers: the program system TURBOMOLE
              Chem. Phys. Lett. 162: 165 (1989)
          Density Functional:                              
              O. Treutler and R. Ahlrichs                      
              Efficient Molecular Numerical Integration Schemes
              J. Chem. Phys. 102: 346 (1995)                   
          Parallel Version:                                
              Performance of parallel TURBOMOLE for Density    
              Functional Calculations                          
              M. v. Arnim and R. Ahlrichs                      
              J. Comp. Chem. 19: 1746 (1998)                   
                                         




              +--------------------------------------------------+
              | Atomic coordinate, charge and isotop information |
              +--------------------------------------------------+

                    atomic coordinates            atom    charge  isotop
          2.97155929    0.48102820   -0.48467944    n      7.000     0
          1.83182474   -1.70672566    0.08414220    c      6.000     0
          3.04933562   -3.34893714    0.19340440    h      1.000     0
         -0.75240979   -1.94418636    0.53093827    c      6.000     0
         -1.54659868   -3.76383766    1.00828915    h      1.000     0
         -2.25974443    0.20136504    0.36924743    c      6.000     0
         -4.27208430    0.09361448    0.70570461    h      1.000     0
         -1.10951167    2.48954862   -0.22696639    c      6.000     0
         -2.19550694    4.21314446   -0.37881936    h      1.000     0
          1.49013850    2.53167682   -0.62784361    c      6.000     0
          2.43478365    4.28739999   -1.09325739    h      1.000     0
         -1.00859081   -2.86456333    7.26437883    n      0.000     0
         -2.77071903   -1.04923675    7.40393729    c      0.000     0
         -4.66571608   -1.67465068    7.86161548    h      0.000     0
         -2.27560504    1.50391256    7.00826760    c      0.000     0
         -3.78466050    2.87302942    7.15617853    h      0.000     0
          0.17995675    2.23947199    6.42194528    c      0.000     0
          0.63724129    4.20289457    6.08959678    h      0.000     0
          2.03105557    0.38206366    6.26441494    c      0.000     0
          3.96292494    0.84834554    5.79493709    h      0.000     0
          1.34606817   -2.12208379    6.70508584    c      0.000     0
          2.75176130   -3.60656691    6.59841345    h      0.000     0
 
       center of nuclear mass  :   -0.02310682    0.00701422    3.39272139
       center of nuclear charge:    0.32077687    0.33996791   -0.05191255

              +--------------------------------------------------+
              |               basis set information              |
              +--------------------------------------------------+

              we will work with the 1s 3p 5d 7f 9g ... basis set
              ...i.e. with spherical basis functions...

   type   atoms  prim   cont   basis
   ---------------------------------------------------------------------------
    n        2     77     55   cc-pVQZ   [5s4p3d2f1g|21s6p3d2f1g]
    c       10     77     55   cc-pVQZ   [5s4p3d2f1g|21s6p3d2f1g]
    h       10     32     30   cc-pVQZ   [4s3p2d1f|6s3p2d1f]
   ---------------------------------------------------------------------------
   total:   22   1244    960
   ---------------------------------------------------------------------------

   total number of primitive shells          :   78
   total number of contracted shells         :  280
   total number of cartesian basis functions : 1190
   total number of SCF-basis functions       :  960


 integral neglect threshold       :  0.28E-13
 integral storage threshold THIZE :  0.10E-04
 integral storage threshold THIME :         5


 DENSITY CONVERGENCE CHECK SWITCHED ON !
 SCF CONVERGENCE IF RMS(delta[D]) <     0.1000000000E-06


 symmetry group of the molecule :   c1 

 the group has the following generators :
   c1(z)

    1 symmetry operations found

 there are 1 real representations :   a   

 maximum number of shells which are related by symmetry :  1


    mo occupation :
   irrep   mo's   occupied
    a      960       21
 
 number of basis functions   :                    960
 number of occupied orbitals :                     21
 

 automatic virtual orbital shift switched on 
      shift if e(lumo)-e(homo) < 0.10000000    


          ------------------------
          nuclear repulsion energy  :   206.225641840    
          ------------------------


         -----------------
         -S,T+V- integrals
         -----------------

 1e-integrals will be neglected if expon. factor < 0.280837E-14
 
   Difference densities algorithm switched on.
   The maximal number of linear combinations of
   difference densities is                    20 .

 DIIS switched on: error vector is FDS-SDF
 Max. Iterations for DIIS is     :   5
 DIIS matrix (see manual) 
    Scaling factor of diagonals  :  1.200
    threshold for scaling factor :  0.000

 scf convergence criterion : increment of total energy < .1000000D-08
                  and increment of one-electron energy < .1000000D-05

  MOs are in ASCII format !


 reading orbital data $scfmo  from file mos
 orbital characterization : scfconv=9

 DSCF restart information will be dumped onto file mos

 
                                              current damping :  0.700
 ITERATION  ENERGY          1e-ENERGY        2e-ENERGY     RMS[dD(SAO)]   TOL
   1  -246.73751377266    -742.18392441     289.22076879    0.000D+00 0.280D-13
          max. resid. norm for Fia-block=  1.079D-01 for orbital      1a         
          max. resid. fock norm         =  3.495D-01 for orbital    882a         
          Delta Eig. =    25.7978823745 eV 
 
                                              current damping :  0.650
 ITERATION  ENERGY          1e-ENERGY        2e-ENERGY     RMS[dD(SAO)]   TOL
   2  -246.78119341397    -741.31063450     288.30379925    0.650D-03 0.182D-13
          Norm of current diis error: 0.59601    
          max. resid. norm for Fia-block=  5.033D-02 for orbital      1a         
          max. resid. fock norm         =  1.179D-01 for orbital    882a         
          Delta Eig. =    11.1490479227 eV 
 
                                              current damping :  0.600
 ITERATION  ENERGY          1e-ENERGY        2e-ENERGY     RMS[dD(SAO)]   TOL
   3  -246.78992777326    -741.39165119     288.37608158    0.322D-03 0.136D-13
          Norm of current diis error: 0.26302    
          max. resid. norm for Fia-block=  2.119D-02 for orbital      1a         
          max. resid. fock norm         =  4.634D-02 for orbital    877a         
          Delta Eig. =     4.5349495401 eV 
 
                                              current damping :  0.650
 ITERATION  ENERGY          1e-ENERGY        2e-ENERGY     RMS[dD(SAO)]   TOL
   4  -246.79176769811    -741.32094913     288.30353959    0.138D-03 0.118D-13
          Norm of current diis error: 0.10724    
          max. resid. norm for Fia-block=  7.807D-03 for orbital      1a         
          max. resid. fock norm         =  1.972D-02 for orbital    903a         
          Delta Eig. =     1.6246227681 eV 
 
                                              current damping :  0.500
 ITERATION  ENERGY          1e-ENERGY        2e-ENERGY     RMS[dD(SAO)]   TOL
   5  -246.79208729166    -741.30439069     288.28666155    0.533D-04 0.108D-13
          Norm of current diis error: 0.46236E-01
          max. resid. norm for Fia-block=  3.104D-03 for orbital      1a         
          max. resid. fock norm         =  7.940D-03 for orbital    895a         
 mo-orthogonalization: Cholesky decomposition
          Delta Eig. =     0.7035669652 eV 
 
                                              current damping :  0.350
 ITERATION  ENERGY          1e-ENERGY        2e-ENERGY     RMS[dD(SAO)]   TOL
   6  -246.79215701354    -741.29768192     288.27988307    0.254D-04 0.101D-13
          Norm of current diis error: 0.18397E-01
          max. resid. norm for Fia-block=  1.258D-03 for orbital     21a         
          max. resid. fock norm         =  2.641D-03 for orbital    916a         
          Delta Eig. =     0.2662307310 eV 
 
                                              current damping :  0.200
 ITERATION  ENERGY          1e-ENERGY        2e-ENERGY     RMS[dD(SAO)]   TOL
   7  -246.79217162118    -741.29437264     288.27655918    0.106D-04 0.941D-14
          Norm of current diis error: 0.74739E-02
          max. resid. norm for Fia-block=  6.019D-04 for orbital     21a         
          max. resid. fock norm         =  6.956D-04 for orbital    916a         
          Delta Eig. =     0.0748998971 eV 
 
                                              current damping :  0.050
 ITERATION  ENERGY          1e-ENERGY        2e-ENERGY     RMS[dD(SAO)]   TOL
   8  -246.79217540046    -741.29388288     288.27606564    0.437D-05 0.876D-14
          Norm of current diis error: 0.37391E-02
          max. resid. norm for Fia-block=  3.961D-04 for orbital     21a         
          max. resid. fock norm         =  3.961D-04 for orbital     21a         
          Delta Eig. =     0.0205818640 eV 
 
                                              current damping :  0.050
 ITERATION  ENERGY          1e-ENERGY        2e-ENERGY     RMS[dD(SAO)]   TOL
   9  -246.79217682700    -741.29359321     288.27577454    0.213D-05 0.801D-14
          Norm of current diis error: 0.19059E-02
          max. resid. norm for Fia-block=  2.607D-04 for orbital     20a         
          max. resid. fock norm         =  2.647D-04 for orbital     20a         
          Delta Eig. =     0.0033346503 eV 
 
                                              current damping :  0.100
 ITERATION  ENERGY          1e-ENERGY        2e-ENERGY     RMS[dD(SAO)]   TOL
  10  -246.79217727886    -741.29388794     288.27606882    0.129D-05 0.734D-14
          Norm of current diis error: 0.83178E-03
          max. resid. norm for Fia-block=  1.195D-04 for orbital     21a         
          max. resid. fock norm         =  1.195D-04 for orbital     21a         
 mo-orthogonalization: Cholesky decomposition
          Delta Eig. =     0.0052425976 eV 
 
                                              current damping :  0.150
 ITERATION  ENERGY          1e-ENERGY        2e-ENERGY     RMS[dD(SAO)]   TOL
  11  -246.79217735064    -741.29373459     288.27591540    0.628D-06 0.699D-14
          Norm of current diis error: 0.36681E-03
          max. resid. norm for Fia-block=  5.067D-05 for orbital     20a         
          max. resid. fock norm         =  5.486D-05 for orbital     20a         
          Delta Eig. =     0.0017729261 eV 
 
                                              current damping :  0.200
 ITERATION  ENERGY          1e-ENERGY        2e-ENERGY     RMS[dD(SAO)]   TOL
  12  -246.79217736096    -741.29384998     288.27603078    0.203D-06 0.682D-14
          Norm of current diis error: 0.12525E-03
          max. resid. norm for Fia-block=  1.534D-05 for orbital     20a         
          max. resid. fock norm         =  1.543D-05 for orbital     20a         
          Delta Eig. =     0.0004971894 eV 
 
                                              current damping :  0.250
 ITERATION  ENERGY          1e-ENERGY        2e-ENERGY     RMS[dD(SAO)]   TOL
  13  -246.79217736236    -741.29384346     288.27602426    0.114D-06 0.671D-14
          Norm of current diis error: 0.44792E-04
          max. resid. norm for Fia-block=  6.509D-06 for orbital     20a         
          max. resid. fock norm         =  6.552D-06 for orbital     20a         
          Delta Eig. =     0.0000700082 eV 

 DENSITY CONVERGED !

 
                                              current damping :  0.300
 ITERATION  ENERGY          1e-ENERGY        2e-ENERGY     RMS[dD(SAO)]   TOL
  14  -246.79217736255    -741.29384600     288.27602680    0.463D-07 0.798D-14
          Norm of current diis error: 0.19215E-04
          max. resid. norm for Fia-block=  2.623D-06 for orbital     19a         
          max. resid. fock norm         =  2.775D-06 for orbital     19a         
          Delta Eig. =     0.0000303703 eV 

 ENERGY & DENSITY CONVERGED !

 
                                              current damping :  0.150
 ITERATION  ENERGY          1e-ENERGY        2e-ENERGY     RMS[dD(SAO)]   TOL
  15  -246.79217736259    -741.29384690     288.27602770    0.194D-07 0.802D-14
          max. resid. norm for Fia-block=  6.146D-07 for orbital     19a         
          max. resid. fock norm         =  6.662D-07 for orbital     19a         

 convergence criteria satisfied after    15 iterations


                  ------------------------------------------ 
                 |  total energy      =   -246.79217736259  |
                  ------------------------------------------ 
                 :  kinetic energy    =    246.44520683952  :
                 :  potential energy  =   -493.23738420211  :
                 :  virial theorem    =      1.99859407812  :
                 :  wavefunction norm =      1.00000000000  :
                  .......................................... 


 orbitals $scfmo  will be written to file mos

    irrep                 17a         18a         19a         20a         21a   
 eigenvalues H         -0.54116    -0.51985    -0.41992    -0.38409    -0.34779
            eV         -14.7259    -14.1459    -11.4266    -10.4516     -9.4639
 occupation              2.0000      2.0000      2.0000      2.0000      2.0000 

    irrep                 22a         23a         24a         25a         26a   
 eigenvalues H          0.06159     0.09026     0.09772     0.10589     0.11613
            eV           1.6759      2.4560      2.6590      2.8813      3.1601
 
 
 
 
 ==============================================================================
                           electrostatic moments
 ==============================================================================

 reference point for electrostatic moments:    0.00000   0.00000   0.00000

 
              nuc           elec       ->  total
 ------------------------------------------------------------------------------
                          charge      
 ------------------------------------------------------------------------------
          42.000000     -42.000000       0.000000
 
 ------------------------------------------------------------------------------
                       dipole moment  
 ------------------------------------------------------------------------------
   x      13.472628     -14.370716      -0.898087
   y      14.278652     -14.326646      -0.047994
   z      -2.180327       2.321139       0.140812
 
   | dipole moment | =     0.9103 a.u. =     2.3138 debye 
 
 ------------------------------------------------------------------------------
                     quadrupole moment
 ------------------------------------------------------------------------------
  xx     177.378751    -205.084552     -27.705801
  yy     179.186084    -201.240761     -22.054677
  zz       9.761308     -38.344988     -28.583679
  xy      -0.245676      -0.531492      -0.777168
  xz     -26.477452      26.377349      -0.100103
  yz     -31.828164      30.697140      -1.131023
 
     1/3  trace=     -26.114719
     anisotropy=       6.583809
 
 ==============================================================================
 


    ------------------------------------------------------------------------
         total  cpu-time :  9 hours 32 minutes and 42 seconds
         total wall-time : 25 minutes and 29 seconds
    ------------------------------------------------------------------------

   ****  dscf : all done  ****


    2019-04-01 22:26:48.093 

