           Doing BLAS/Lapack in the master proc. with  8 CPUs.
           SMPCPUS    set: Shared-memory Parallelization with   8 CPUs.

           SMP Parallelization Reference:
           C. van Wullen, J. Comput. Chem. 32 (2011) 1195--1201
 operating system is UNIX !

 ridft (c-18-361.gp.local) : TURBOMOLE V7.2 ( 21454 ) 4 Oct 2017 at 12:48:15
 Copyright (C) 2017 TURBOMOLE GmbH, Karlsruhe


    2018-04-28 21:09:20.375 



                                  r i d f t

                        DFT program with RI approximation 
                                for coulomb part 




                                                 
                                 References:     
                                                 
          TURBOMOLE:                             
              R. Ahlrichs, M. Baer, M. Haeser, H. Horn, and
              C. Koelmel
              Electronic structure calculations on workstation
              computers: the program system TURBOMOLE
              Chem. Phys. Lett. 162: 165 (1989)
          Density Functional:                              
              O. Treutler and R. Ahlrichs                      
              Efficient Molecular Numerical Integration Schemes
              J. Chem. Phys. 102: 346 (1995)                   
          Parallel Version:                                
              Performance of parallel TURBOMOLE for Density    
              Functional Calculations                          
              M. v. Arnim and R. Ahlrichs                      
              J. Comp. Chem. 19: 1746 (1998)                   
          RI-J Method:                                     
              Auxiliary Basis Sets to approximate Coulomb      
              Potentials                                       
              Chem. Phys. Lett. 240: 283 (1995)                
              K. Eichkorn, O. Treutler, H. Oehm, M. Haeser     
              and R. Ahlrichs                                  
              Chem. Phys. Lett. 242: 652 (1995)                
                                                           
              Auxiliary Basis Sets for Main Row Atoms and their
              Use to approximate Coulomb Potentials            
              K. Eichkorn, F. Weigend, O. Treutler and         
              R. Ahlrichs                                      
              Theo. Chem. Acc. 97: 119 (1997)                   
                                                           
              Accurate Coulomb-fitting basis sets for H to Rn 
              F. Weigend                                        
              Phys. Chem. Chem. Phys. 8: 1057 (2006)            
                                                           
          Multipole accelerated RI-J (MARI-J):             
              Fast evaluation of the Coulomb potential for     
              electron densities using multipole accelerated   
              resolution of identity approximation             
              M. Sierka, A. Hogekamp and R. Ahlrichs           
              J. Chem. Phys. 118: 9136 (2003)                  
          RI-JK Method:                                     
              A fully direct RI-HF algorithm: Implementation,
              optimised auxiliary basis sets, demonstration of
              accuracy and efficiency                         
              F. Weigend                                      
              Phys. Chem. Chem. Phys. 4: 4285 (2002)           
          Two-component HF and DFT with spin-orbit coupling:  
              Self-consistent treatment of spin-orbit         
              interactions with efficient Hartree-Fock and    
              density functional methods                      
              M. K. Armbruster, F. Weigend, C. van Wüllen and 
              W. Klopper                                      
              Phys. Chem. Chem. Phys. 10: 1748 (2008)         
          Relativistic all-electron 2c calculations           
              An efficient implementation of two-component    
              relativistic exact-decoupling methods for large 
              molecules                                       
              D. Peng, N. Middendorf, F. Weigend, M. Reiher   
              J. Chem. Phys. 138, 184105 (2013)               
                                         




              +--------------------------------------------------+
              |      general information about current run       |
              +--------------------------------------------------+

 

 DENSITY CONVERGENCE CHECK SWITCHED ON !
 SCF CONVERGENCE IF RMS(delta[D]) <     0.1000000000E-06

 TPSS meta-GGA functional
 exchange:    LDA + TPSS
 correlation: LDA (PW) + TPSS
 A DFT calculation using the RI-J approximation will be carried out.
 Allocatable memory for RI due to $ricore (MB):                  5000


              +--------------------------------------------------+
              | Atomic coordinate, charge and isotop information |
              +--------------------------------------------------+

                    atomic coordinates            atom    charge  isotop
         -1.02245371    0.05589092   -0.39494346    n      0.000     0
          0.10498062   -1.48554792   -0.24621874    h      0.000     0
         -2.77727268   -0.51912374    0.10042644    h      0.000     0
         -0.14890903    1.96983231    1.39548501    c      0.000     0
         -1.36089182    3.62716636    1.26985866    h      0.000     0
         -0.09591908    1.36782711    3.37413347    h      0.000     0
          1.75070035    2.56360964    0.87305194    h      0.000     0
          4.42545556   -2.37500800    0.05698091    n      7.000     0
          5.06500751   -0.83990019   -1.85487860    c      6.000     0
          4.03951509   -1.11303739   -3.60359593    h      1.000     0
          6.90055380    1.03496097   -1.66521245    c      6.000     0
          7.32546333    2.21479313   -3.27686669    h      1.000     0
          8.14936055    1.35534786    0.62563534    c      6.000     0
          9.58149695    2.79576767    0.84556947    h      1.000     0
          7.50660250   -0.22250265    2.62708766    c      6.000     0
          8.41856242   -0.05155379    4.44632825    h      1.000     0
          5.64752477   -2.04568965    2.25068562    c      6.000     0
          5.10690373   -3.29999085    3.77495886    h      1.000     0
 
       center of nuclear mass  :    4.33755557   -0.10254272    0.39458465
       center of nuclear charge:    6.31105774   -0.48537569    0.34488490

              +--------------------------------------------------+
              |               basis set information              |
              +--------------------------------------------------+

              we will work with the 1s 3p 5d 7f 9g ... basis set
              ...i.e. with spherical basis functions...

   type   atoms  prim   cont   basis
   ---------------------------------------------------------------------------
    n        2     50     30   cc-pVTZ   [4s3p2d1f|18s5p2d1f]
    h       10     16     14   cc-pVTZ   [3s2p1d|5s2p1d]
    c        6     50     30   cc-pVTZ   [4s3p2d1f|18s5p2d1f]
   ---------------------------------------------------------------------------
   total:   18    560    380
   ---------------------------------------------------------------------------

   total number of primitive shells          :   60
   total number of contracted shells         :  140
   total number of cartesian basis functions :  430
   total number of SCF-basis functions       :  380


 integral neglect threshold       :  0.78E-13
 integral storage threshold THIZE :  0.10E-04
 integral storage threshold THIME :         5

 RI-J AUXILIARY BASIS SET information:

              we will work with the 1s 3p 5d 7f 9g ... basis set
              ...i.e. with spherical basis functions...

   type   atoms  prim   cont   basis
   ---------------------------------------------------------------------------
    n        2     70     49   cc-pVTZ   [6s4p3d1f1g|12s5p4d2f1g]
    h       10     16     11   cc-pVTZ   [3s1p1d|5s2p1d]
    c        6     70     49   cc-pVTZ   [6s4p3d1f1g|12s5p4d2f1g]
   ---------------------------------------------------------------------------
   total:   18    720    502
   ---------------------------------------------------------------------------

   total number of primitive shells          :   56
   total number of contracted shells         :  170
   total number of cartesian basis functions :  608
   total number of SCF-basis functions       :  502


 symmetry group of the molecule :   c1 

 the group has the following generators :
   c1(z)

    1 symmetry operations found

 there are 1 real representations :   a   

 maximum number of shells which are related by symmetry :  1


    mo occupation :
   irrep   mo's   occupied
    a      380       21
 
 number of basis functions   :                    380
 number of occupied orbitals :                     21
 
  
           ------------------
           density functional
           ------------------
 Dummy atoms with grid-point found.
 DFT quadrature threshold dgrenze tightened by factor 1/10.

 TPSS meta-GGA functional
 exchange:    LDA + TPSS
 correlation: LDA (PW) + TPSS
 Dummy atoms with grid-point found.
 DFT quadrature threshold dgrenze tightened by factor 1/10.

 Dummy atoms with grid-point found.
 DFT quadrature threshold dgrenze tightened by factor 1/10.


 iterations will be done with small grid
  
 spherical integration : Lebedev's spherical grid
 spherical gridsize    :                     5
    i.e. gridpoints    :                   590
 value for diffuse not defined
 radial integration    : Chebyshev 2nd kind (scaling 3)
 radial gridsize       :                     8
 integration cells     :                    18
 partition function    : becke
 partition sharpness   :                     3
  
 found dummy atom(s) with basis: included in dft

 biggest AO integral is expected to be     4.229423036
  
           ------------------------
               RI-J - INFORMATION
           ------------------------
 Contributions to RI integral batches: 
  neglected integral batches:                  1159
  direct contribution:                            0
  memory contribution:                  8711
 Memory core needed for (P|Q) and Cholesky      2 MByte
 Memory core minimum needed except of (P|Q)     1 MByte
 Total minimum memory core needed (sum)         3 MByte
  
 ****************************************
 Memory allocated for RI-J   374 MByte
 ****************************************
                                            

          ------------------------
          nuclear repulsion energy  :   206.234916963    
          ------------------------


         -----------------
         -S,T+V- integrals
         -----------------

 1e-integrals will be neglected if expon. factor < 0.777200E-14
 Difference densities >>NOT<< switched on in parallel ridft!

 DIIS switched on: error vector is FDS-SDF
 Max. Iterations for DIIS is     :   4
 DIIS matrix (see manual) 
    Scaling factor of diagonals  :  1.200
    threshold for scaling factor :  0.000

 scf convergence criterion : increment of total energy < .1000000D-08
                  and increment of one-electron energy < .1000000D-05

  MOs are in ASCII format !


 automatic virtual orbital shift switched on 
      shift if e(lumo)-e(homo) < 0.10000000    


 reading orbital data $scfmo  from file mos
 orbital characterization : expanded
 mo provided and orthogonalized by Cholesky decomposition

 DSCF restart information will be dumped onto file mos


 Starting SCF iterations

          Overall gridpoints after grid construction =         93178

 ITERATION  ENERGY          1e-ENERGY        2e-ENERGY     RMS[dD(SAO)]   TOL
   1  -247.44757692391    -732.94484692     279.26235303    0.000D+00 0.775D-13
                            Exc = -35.1452968300     Coul =  314.407649864    
                              N = 42.000034514    
                            current damping = 0.700
 
          max. resid. norm for Fia-block=  2.814D-01 for orbital     15a         
          max. resid. fock norm         =  1.106D+01 for orbital    357a         

 ITERATION  ENERGY          1e-ENERGY        2e-ENERGY     RMS[dD(SAO)]   TOL
   2  -248.22251340093    -739.20182483     284.74439447    0.299D-02 0.775D-13
                            Exc = -35.6326398324     Coul =  320.377034298    
                              N = 42.000034026    
                            current damping = 0.650
 
          Norm of current diis error:  2.0538    
          max. resid. norm for Fia-block=  1.352D-01 for orbital      1a         
          max. resid. fock norm         =  2.151D-01 for orbital    375a         

 ITERATION  ENERGY          1e-ENERGY        2e-ENERGY     RMS[dD(SAO)]   TOL
   3  -248.36081126714    -740.87048665     286.27475842    0.153D-02 0.775D-13
                            Exc = -35.8398580624     Coul =  322.114616482    
                              N = 42.000032554    
                            current damping = 0.550
 
          Norm of current diis error:  1.0169    
          max. resid. norm for Fia-block=  5.440D-02 for orbital     21a         
          max. resid. fock norm         =  6.052D-02 for orbital      7a         

 ITERATION  ENERGY          1e-ENERGY        2e-ENERGY     RMS[dD(SAO)]   TOL
   4  -248.40535642842    -741.56028002     286.92000663    0.102D-02 0.775D-13
                            Exc = -35.9089019857     Coul =  322.828908616    
                              N = 42.000035261    
                            current damping = 0.450
 
          Norm of current diis error: 0.40235    
          max. resid. norm for Fia-block=  2.721D-02 for orbital      7a         
          max. resid. fock norm         =  4.508D-02 for orbital    375a         

 ITERATION  ENERGY          1e-ENERGY        2e-ENERGY     RMS[dD(SAO)]   TOL
   5  -248.41131016952    -742.26400594     287.61777881    0.453D-03 0.775D-13
                            Exc = -35.9854758861     Coul =  323.603254691    
                              N = 42.000034960    
                            current damping = 0.350
 
          Norm of current diis error: 0.22966    
          max. resid. norm for Fia-block=  1.343D-02 for orbital     21a         
          max. resid. fock norm         =  1.435D-02 for orbital     21a         
          mo-orthogonalization: Cholesky decomposition

 ITERATION  ENERGY          1e-ENERGY        2e-ENERGY     RMS[dD(SAO)]   TOL
   6  -248.41362456557    -742.13844916     287.48990763    0.359D-03 0.775D-13
                            Exc = -35.9764658093     Coul =  323.466373439    
                              N = 42.000036479    
                            current damping = 0.400
 
          Norm of current diis error: 0.10170    
          max. resid. norm for Fia-block=  3.231D-03 for orbital     19a         
          max. resid. fock norm         =  7.197D-03 for orbital    376a         

 ITERATION  ENERGY          1e-ENERGY        2e-ENERGY     RMS[dD(SAO)]   TOL
   7  -248.41402581811    -742.19061412     287.54167134    0.824D-04 0.775D-13
                            Exc = -35.9823793859     Coul =  323.524050727    
                              N = 42.000036322    
                            current damping = 0.450
 
          Norm of current diis error: 0.32014E-01
          max. resid. norm for Fia-block=  1.467D-03 for orbital     13a         
          max. resid. fock norm         =  2.220D-03 for orbital    376a         

 ITERATION  ENERGY          1e-ENERGY        2e-ENERGY     RMS[dD(SAO)]   TOL
   8  -248.41406063677    -742.22954207     287.58056447    0.270D-04 0.775D-13
                            Exc = -35.9861778440     Coul =  323.566742311    
                              N = 42.000036365    
                            current damping = 0.300
 
          Norm of current diis error: 0.11507E-01
          max. resid. norm for Fia-block=  3.541D-04 for orbital     17a         
          max. resid. fock norm         =  5.684D-04 for orbital    376a         

 ITERATION  ENERGY          1e-ENERGY        2e-ENERGY     RMS[dD(SAO)]   TOL
   9  -248.41406609734    -742.23198662     287.58300356    0.965D-05 0.775D-13
                            Exc = -35.9862839428     Coul =  323.569287502    
                              N = 42.000036369    
                            current damping = 0.150
 
          Norm of current diis error: 0.18928E-02
          max. resid. norm for Fia-block=  1.030D-04 for orbital     20a         
          max. resid. fock norm         =  1.641D-04 for orbital    158a         

 ITERATION  ENERGY          1e-ENERGY        2e-ENERGY     RMS[dD(SAO)]   TOL
  10  -248.41406613537    -742.22435157     287.57536847    0.310D-05 0.775D-13
                            Exc = -35.9858360025     Coul =  323.561204472    
                              N = 42.000036380    
                            current damping = 0.200
 
          Norm of current diis error: 0.16824E-02
          max. resid. norm for Fia-block=  5.618D-05 for orbital     20a         
          max. resid. fock norm         =  7.286D-05 for orbital    374a         
          mo-orthogonalization: Cholesky decomposition

 ITERATION  ENERGY          1e-ENERGY        2e-ENERGY     RMS[dD(SAO)]   TOL
  11  -248.41406623120    -742.22732710     287.57834391    0.142D-05 0.775D-13
                            Exc = -35.9860221029     Coul =  323.564366013    
                              N = 42.000036376    
                            current damping = 0.250
 
          Norm of current diis error: 0.63360E-03
          max. resid. norm for Fia-block=  2.653D-05 for orbital     19a         
          max. resid. fock norm         =  4.301D-05 for orbital    375a         

 ITERATION  ENERGY          1e-ENERGY        2e-ENERGY     RMS[dD(SAO)]   TOL
  12  -248.41406624272    -742.22776898     287.57878578    0.728D-06 0.775D-13
                            Exc = -35.9860369664     Coul =  323.564822743    
                              N = 42.000036379    
                            current damping = 0.100
 
          Norm of current diis error: 0.36239E-03
          max. resid. norm for Fia-block=  1.288D-05 for orbital     19a         
          max. resid. fock norm         =  1.951D-05 for orbital    375a         

 ITERATION  ENERGY          1e-ENERGY        2e-ENERGY     RMS[dD(SAO)]   TOL
  13  -248.41406624742    -742.22804543     287.57906222    0.350D-06 0.775D-13
                            Exc = -35.9860680921     Coul =  323.565130313    
                              N = 42.000036377    
                            current damping = 0.050
 
          Norm of current diis error: 0.13796E-03
          max. resid. norm for Fia-block=  5.549D-06 for orbital     19a         
          max. resid. fock norm         =  7.412D-06 for orbital    375a         

 ITERATION  ENERGY          1e-ENERGY        2e-ENERGY     RMS[dD(SAO)]   TOL
  14  -248.41406624803    -742.22771222     287.57872901    0.162D-06 0.775D-13
                            Exc = -35.9860398304     Coul =  323.564768844    
                              N = 42.000036378    
                            current damping = 0.100
 
          Norm of current diis error: 0.69845E-04
          max. resid. norm for Fia-block=  2.014D-06 for orbital     13a         
          max. resid. fock norm         =  2.715D-06 for orbital    377a         

 DENSITY CONVERGED !


 ITERATION  ENERGY          1e-ENERGY        2e-ENERGY     RMS[dD(SAO)]   TOL
  15  -248.41406624823    -742.22778872     287.57880550    0.537D-07 0.775D-13
                            Exc = -35.9860467985     Coul =  323.564852303    
                              N = 42.000036378    
                            current damping = 0.150
 
          Norm of current diis error: 0.16955E-04
          max. resid. norm for Fia-block=  8.314D-07 for orbital     20a         
          max. resid. fock norm         =  1.110D-06 for orbital    377a         
          mo-orthogonalization: Cholesky decomposition

 DENSITY CONVERGED !


 ITERATION  ENERGY          1e-ENERGY        2e-ENERGY     RMS[dD(SAO)]   TOL
  16  -248.41406624824    -742.22782647     287.57884326    0.186D-07 0.775D-13
                            Exc = -35.9860489612     Coul =  323.564892225    
                              N = 42.000036378    
                            current damping = 0.050
 
          Norm of current diis error: 0.11352E-04
          max. resid. norm for Fia-block=  3.135D-07 for orbital     20a         
          max. resid. fock norm         =  4.533D-07 for orbital     10a         

 ENERGY & DENSITY CONVERGED !

          Overall gridpoints after grid construction =        277620

 ITERATION  ENERGY          1e-ENERGY        2e-ENERGY     RMS[dD(SAO)]   TOL
  17  -248.41391472368    -742.22780942     287.57897773    0.878D-08 0.775D-13
                            Exc = -35.9858965774     Coul =  323.564874307    
                              N = 41.999999807    
                            current damping = 0.100
 
          Norm of current diis error: 0.33879E-05
          max. resid. norm for Fia-block=  1.094D-07 for orbital     19a         
          max. resid. fock norm         =  1.799D-07 for orbital    377a         

 End of SCF iterations

   convergence criteria satisfied after    17 iterations


                  ------------------------------------------ 
                 |  total energy      =   -248.41391472368  |
                  ------------------------------------------ 
                 :  kinetic energy    =    247.02912726161  :
                 :  potential energy  =   -495.44304198529  :
                 :  virial theorem    =      1.99442548352  :
                 :  wavefunction norm =      1.00000000000  :
                  .......................................... 


 <geterg> : there is no data group $energy 


 <skperg> : $end is missing 


 orbitals $scfmo  will be written to file mos

    irrep                 17a         18a         19a         20a         21a   
 eigenvalues H         -0.36429    -0.32766    -0.26548    -0.24332    -0.21941
            eV          -9.9130     -8.9163     -7.2241     -6.6211     -5.9704
 occupation              2.0000      2.0000      2.0000      2.0000      2.0000 

    irrep                 22a         23a         24a         25a         26a   
 eigenvalues H         -0.05927    -0.04496     0.02743     0.05322     0.05893
            eV          -1.6129     -1.2234      0.7465      1.4482      1.6036
 
 
 
 
 ==============================================================================
                           electrostatic moments
 ==============================================================================

 reference point for electrostatic moments:    0.00000   0.00000   0.00000

 
              nuc           elec       ->  total
 ------------------------------------------------------------------------------
                          charge      
 ------------------------------------------------------------------------------
          42.000000     -42.000000      -0.000000
 
 ------------------------------------------------------------------------------
                       dipole moment  
 ------------------------------------------------------------------------------
   x     265.064425    -264.447942       0.616483
   y     -20.385779      20.983239       0.597460
   z      14.485166     -14.395602       0.089564
 
   | dipole moment | =     0.8632 a.u. =     2.1939 debye 
 
 ------------------------------------------------------------------------------
                     quadrupole moment
 ------------------------------------------------------------------------------
  xx    1763.396266   -1782.974578     -19.578312
  yy     111.425103    -138.852524     -27.427421
  zz     169.914236    -192.352213     -22.437977
  xy     -48.086699      51.727018       3.640318
  xz     127.879512    -126.278699       1.600814
  yz     -41.554305      40.242186      -1.312119
 
     1/3  trace=     -23.147903
     anisotropy=       9.997445
 
 ==============================================================================
 


    ------------------------------------------------------------------------
         total  cpu-time :  5 minutes and 12 seconds
         total wall-time :  38.87 seconds
    ------------------------------------------------------------------------

   ****  ridft : all done  ****


    2018-04-28 21:09:59.229 

