           Doing BLAS/Lapack in the master proc. with 16 CPUs.
           SMPCPUS    set: Shared-memory Parallelization with  28 CPUs.

           SMP Parallelization Reference:
           C. van Wullen, J. Comput. Chem. 32 (2011) 1195--1201
 operating system is UNIX !

 dscf (c-19-412.gp.local) : TURBOMOLE V7.2 ( 21454 ) 4 Oct 2017 at 12:48:15
 Copyright (C) 2017 TURBOMOLE GmbH, Karlsruhe


    2018-02-21 10:33:02.475 



                             d s c f - program

                   idea & directorship : reinhart ahlrichs
                   program development : marco haeser
                                         michael baer
                           dft version : oliver treutler


                          quantum chemistry group
                          universitaet  karlsruhe
                                  germany




                          References             
                                                 
          TURBOMOLE:                             
              R. Ahlrichs, M. Baer, M. Haeser, H. Horn, and
              C. Koelmel
              Electronic structure calculations on workstation
              computers: the program system TURBOMOLE
              Chem. Phys. Lett. 162: 165 (1989)
          Density Functional:                              
              O. Treutler and R. Ahlrichs                      
              Efficient Molecular Numerical Integration Schemes
              J. Chem. Phys. 102: 346 (1995)                   
          Parallel Version:                                
              Performance of parallel TURBOMOLE for Density    
              Functional Calculations                          
              M. v. Arnim and R. Ahlrichs                      
              J. Comp. Chem. 19: 1746 (1998)                   
                                         




              +--------------------------------------------------+
              | Atomic coordinate, charge and isotop information |
              +--------------------------------------------------+

                    atomic coordinates            atom    charge  isotop
          1.89876784   -7.68234026    5.90679478    o      8.000     0
          2.06117078   -8.65361703    3.80773851    c      6.000     0
          4.23037868   -8.84512605    2.36524774    n      7.000     0
          3.85521210  -10.37157492    0.11441070    c      6.000     0
          0.98620952  -11.03454343    0.20025841    c      6.000     0
          0.11366443   -9.78120917    2.48183738    n      7.000     0
          0.02482346  -10.00284864   -2.15569236    n      7.000     0
          1.91562784   -9.01176622   -3.65968345    c      6.000     0
          4.12659081   -9.03825140   -2.26991296    n      7.000     0
          6.55119240   -8.39215966   -3.36286290    c      6.000     0
          7.66724370   -6.11048330   -2.32261170    n      7.000     0
          7.99160265   -3.96061263   -3.77078176    c      6.000     0
          9.53542111   -2.32350887   -2.44888163    n      7.000     0
         10.53296331   -3.44992515   -0.15228905    c      6.000     0
          9.24623305   -6.09901748   -0.07292130    c      6.000     0
          7.89673373   -6.07575066    2.31589954    n      7.000     0
          8.32928584   -3.90073471    3.69561169    c      6.000     0
          9.71219200   -2.27499598    2.18887411    n      7.000     0
         10.59872716   -0.07880151   -3.61435936    c      6.000     0
          9.60393220    2.26719139   -2.61587817    n      7.000     0
         10.53546975    3.44050487   -0.31565632    c      6.000     0
          9.25239313    6.09233347   -0.33576825    c      6.000     0
          7.79922306    6.07479297   -2.66271561    n      7.000     0
          8.16031579    3.89760385   -4.05933559    c      6.000     0
          9.64344795    2.31631802    2.02485024    n      7.000     0
          8.16211432    3.95496692    3.41432919    c      6.000     0
          7.77348155    6.10416100    1.98110970    n      7.000     0
          6.57010704    8.29027650   -3.69547296    c      6.000     0
          4.14009550    8.85239570   -2.55117027    n      7.000     0
          3.86432932   10.37453401   -0.28318639    c      6.000     0
          0.99453769   11.03914665   -0.24262096    c      6.000     0
          0.02253732    9.78895241   -2.48539318    n      7.000     0
          1.90935329    8.66210763   -3.89695162    c      6.000     0
          4.23847390    9.03707659    2.08497960    n      7.000     0
          2.09033290    9.01069215    3.57014629    c      6.000     0
          0.13633681   10.00542819    2.15196419    n      7.000     0
         -2.45741588   10.29520577   -3.53734339    c      6.000     0
         -4.46271651    8.80943480   -2.41146150    n      7.000     0
         -5.71922799    9.50901589   -0.07299830    c      6.000     0
         -8.02537836    7.67973893    0.03142782    c      6.000     0
         -7.80540785    6.24179610   -2.29573409    n      7.000     0
         -5.80060030    7.02671365   -3.77305206    c      6.000     0
         -4.33309885    8.92689815    2.22390683    n      7.000     0
         -5.53194407    7.12377653    3.68041972    c      6.000     0
         -7.59890841    6.25489679    2.34217686    n      7.000     0
         -9.77761554    4.59843981   -3.25245866    c      6.000     0
         -9.77685086    2.09011459   -2.14479136    n      7.000     0
        -11.02410900    1.48130630    0.22399027    c      6.000     0
        -11.02751270   -1.46496471    0.26301939    c      6.000     0
         -9.74190282   -2.12835511   -2.07041420    n      7.000     0
         -9.20248391   -0.03962929   -3.54224543    c      6.000     0
         -9.63135343    2.14073950    2.49614413    n      7.000     0
         -9.02789408    0.05009556    3.94019832    c      6.000     0
         -9.67514645   -2.07777804    2.57208088    n      7.000     0
         -9.67764819   -4.67121670   -3.08358512    c      6.000     0
         -7.71019171   -6.24590331   -2.00233528    n      7.000     0
         -5.70197329   -7.11323650   -3.42841398    c      6.000     0
         -4.44153843   -8.91760694   -2.02664601    n      7.000     0
         -5.72764932   -9.50180248    0.32732590    c      6.000     0
         -8.03573816   -7.67178688    0.32460209    c      6.000     0
         -7.71381073   -6.23597605    2.64091977    n      7.000     0
         -5.64820386   -7.02401065    4.03040387    c      6.000     0
         -4.37104764   -8.80536070    2.60993864    n      7.000     0
         -2.48916405  -10.50906464   -3.11465884    c      6.000     0
         -9.63709693   -4.58551996    3.68060502    c      6.000     0
         -9.51839793    4.68230951    3.50847560    c      6.000     0
         -2.33162596   10.51545879    3.22261845    c      6.000     0
          6.70792056    8.38711899    3.07025091    c      6.000     0
         10.75524163    0.06959612    3.14038396    c      6.000     0
          6.70872862   -8.28753516    3.40340964    c      6.000     0
         -2.31632170  -10.29017750    3.64384575    c      6.000     0
         -5.15475996   -6.42490432   -5.57667273    o      8.000     0
          1.68133159   -8.27481763   -5.84646211    o      8.000     0
          7.09347839   -3.58702783   -5.87637672    o      8.000     0
          7.37393493    3.49883773   -6.20383486    o      8.000     0
         -8.38923260   -0.07382607   -5.71398990    o      8.000     0
         -5.31140432    6.29797530   -5.92068869    o      8.000     0
          1.65424650    7.69343122   -5.98790085    o      8.000     0
         -8.11096776    0.08148988    6.07024575    o      8.000     0
         -5.06779298   -6.29899237    6.15613033    o      8.000     0
         -4.89305688    6.43693725    5.80371361    o      8.000     0
          1.95143251    8.27115623    5.76419570    o      8.000     0
          7.64266267   -3.50014965    5.87381978    o      8.000     0
          7.36023521    3.58336206    5.55888565    o      8.000     0
        -12.92089879   -2.29950796    0.30062314    h      1.000     0
         10.37313555    0.13053514    5.16539403    h      1.000     0
          6.49146563    8.06405330    5.09495356    h      1.000     0
          8.01221759    9.95844202    2.72601484    h      1.000     0
         12.79603558    0.09697431    2.79072379    h      1.000     0
          7.93525174   -9.92997158    3.11070738    h      1.000     0
         -2.82379102   12.49643567    2.87705248    h      1.000     0
         -2.20465923   10.14911323    5.24730099    h      1.000     0
          6.46762337   -7.92076078    5.41775039    h      1.000     0
         -2.75449802  -12.30161272    3.41911965    h      1.000     0
        -11.36408036    5.58950007    3.26593540    h      1.000     0
         -9.05266448    4.52370335    5.51044023    h      1.000     0
         -2.15854818   -9.80819422    5.64199310    h      1.000     0
          6.24137052    7.92653201   -5.69796858    h      1.000     0
         -9.23090631   -4.36189595    5.68922187    h      1.000     0
        -11.49224079   -5.46421449    3.41216634    h      1.000     0
          7.81201959    9.92944085   -3.45420121    h      1.000     0
         -9.86848673   -8.63245311    0.32391360    h      1.000     0
         -2.88725206   12.30632473   -3.29461313    h      1.000     0
         -6.24555625  -11.50463215    0.38141039    h      1.000     0
         -2.38862000    9.81187570   -5.54021251    h      1.000     0
          0.59780172  -13.06457595    0.30491353    h      1.000     0
        -11.61602202    5.48413575   -2.90385461    h      1.000     0
          5.09832534  -12.02591062    0.15711425    h      1.000     0
         -9.45942122    4.37419648   -5.27678478    h      1.000     0
         10.58006623   -7.68013945   -0.12959881    h      1.000     0
        -11.51166043   -5.57604764   -2.75801390    h      1.000     0
         12.59948034   -3.52456550   -0.23211459    h      1.000     0
         -9.30164671   -4.51520593   -5.10450379    h      1.000     0
         12.60361766    3.51052355   -0.33215560    h      1.000     0
         10.12420758   -0.13901078   -5.61976903    h      1.000     0
         10.59080274    7.67059178   -0.33582623    h      1.000     0
         12.65350199   -0.10954846   -3.35887531    h      1.000     0
          5.10527870   12.02839125   -0.37695142    h      1.000     0
          7.86728399   -9.96516492   -3.07601500    h      1.000     0
          0.60340959   13.06960713   -0.32786942    h      1.000     0
          6.24628679   -8.06955682   -5.37626111    h      1.000     0
         -6.23837242   11.51198407   -0.10723915    h      1.000     0
         -2.45248841  -10.14278681   -5.14301479    h      1.000     0
         -9.85610655    8.64097978    0.11138685    h      1.000     0
         -2.96873379  -12.48933780   -2.74757689    h      1.000     0
        -12.91490374    2.32127365    0.27271857    h      1.000     0
 
       center of nuclear mass  :   -0.02099969    0.00163268    0.00060517
       center of nuclear charge:   -0.02102450    0.00163345    0.00060682

              +--------------------------------------------------+
              |               basis set information              |
              +--------------------------------------------------+

              we will work with the 1s 3p 5d 7f 9g ... basis set
              ...i.e. with spherical basis functions...

   type   atoms  prim   cont   basis
   ---------------------------------------------------------------------------
    o       14     77     55   cc-pVQZ   [5s4p3d2f1g|21s6p3d2f1g]
    c       42     77     55   cc-pVQZ   [5s4p3d2f1g|21s6p3d2f1g]
    n       28     77     55   cc-pVQZ   [5s4p3d2f1g|21s6p3d2f1g]
    h       42     32     30   cc-pVQZ   [4s3p2d1f|6s3p2d1f]
   ---------------------------------------------------------------------------
   total:  126   7812   5880
   ---------------------------------------------------------------------------

   total number of primitive shells          :  111
   total number of contracted shells         : 1680
   total number of cartesian basis functions : 7350
   total number of SCF-basis functions       : 5880


 integral neglect threshold       :  0.45E-12
 integral storage threshold THIZE :  0.10E-04
 integral storage threshold THIME :         5


 DENSITY CONVERGENCE CHECK SWITCHED ON !
 SCF CONVERGENCE IF RMS(delta[D]) <     0.1000000000E-06


 symmetry group of the molecule :   c1 

 the group has the following generators :
   c1(z)

    1 symmetry operations found

 there are 1 real representations :   a   

 maximum number of shells which are related by symmetry :  1


    mo occupation :
   irrep   mo's   occupied
    a     5880      301
 
 number of basis functions   :                   5880
 number of occupied orbitals :                    301
 

 automatic virtual orbital shift switched on 
      shift if e(lumo)-e(homo) < 0.10000000    


   ----> a dscf RESTART run will be tried ! <----
     2e integrals will be read from 2e integral file(s)

 $restart flag 'dscf  twoint' will be switched off !


          ------------------------
          nuclear repulsion energy  :   16569.1327969    
          ------------------------


         -----------------
         -S,T+V- integrals
         -----------------

 1e-integrals will be neglected if expon. factor < 0.454689E-13
 
   Difference densities algorithm switched on.
   The maximal number of linear combinations of
   difference densities is                    20 .

 DIIS switched on: error vector is FDS-SDF
 Max. Iterations for DIIS is     :   5
 DIIS matrix (see manual) 
    Scaling factor of diagonals  :  1.200
    threshold for scaling factor :  0.000

 scf convergence criterion : increment of total energy < .1000000D-06
                  and increment of one-electron energy < .1000000D-03

  MOs are in ASCII format !


 reading orbital data $scfmo  from file mos
 orbital characterization : scfdump=10

 DSCF restart information will be dumped onto file mos


 complete restart information read in from $restartd
 iterations from earlier run will be continued
no density matrices from previous iterations found
  expected :                     10  found :                      0
 
                                              current damping :  0.450
 ITERATION  ENERGY          1e-ENERGY        2e-ENERGY     RMS[dD(SAO)]   TOL
  11  -4189.6317572241    -38780.733827     18021.969273    0.374D-02 0.454D-12
          max. resid. norm for Fia-block=  9.295D-04 for orbital    273a         
          max. resid. fock norm         =  8.150D-02 for orbital   3086a         
          Delta Eig. =     0.2408329736 eV 
 
                                              current damping :  0.500
 ITERATION  ENERGY          1e-ENERGY        2e-ENERGY     RMS[dD(SAO)]   TOL
  12  -4189.6317618629    -38780.736291     18021.971732    0.103D-03 0.288D-12
          Norm of current diis error: 0.89008E-03
          max. resid. norm for Fia-block=  2.991D-04 for orbital    273a         
          max. resid. fock norm         =  2.899D-02 for orbital   3090a         
          Delta Eig. =     0.0871968039 eV 
 
                                              current damping :  0.550
 ITERATION  ENERGY          1e-ENERGY        2e-ENERGY     RMS[dD(SAO)]   TOL
  13  -4189.6317619033    -38780.735543     18021.970984    0.339D-04 0.228D-12
          Norm of current diis error: 0.54659E-03
          max. resid. norm for Fia-block=  1.056D-04 for orbital    273a         
          max. resid. fock norm         =  9.787D-03 for orbital   3092a         
          Delta Eig. =     0.0527172613 eV 
 
                                              current damping :  0.600
 ITERATION  ENERGY          1e-ENERGY        2e-ENERGY     RMS[dD(SAO)]   TOL
  14  -4189.6317617552    -38780.736599     18021.972041    0.119D-04 0.199D-12
          Norm of current diis error: 0.28403E-03
          max. resid. norm for Fia-block=  3.598D-05 for orbital    273a         
          max. resid. fock norm         =  3.502D-03 for orbital   3092a         
          Delta Eig. =     0.0183568170 eV 
 
                                              current damping :  0.650
 ITERATION  ENERGY          1e-ENERGY        2e-ENERGY     RMS[dD(SAO)]   TOL
  15  -4189.6317616857    -38780.736585     18021.972026    0.376D-05 0.190D-12
          Norm of current diis error: 0.13783E-03
          max. resid. norm for Fia-block=  1.259D-05 for orbital    273a         
          max. resid. fock norm         =  1.326D-03 for orbital   3092a         
 mo-orthogonalization: Cholesky decomposition
          Delta Eig. =     0.0067595219 eV 
 
                                              current damping :  0.700
 ITERATION  ENERGY          1e-ENERGY        2e-ENERGY     RMS[dD(SAO)]   TOL
  16  -4189.6317616621    -38780.736606     18021.972048    0.112D-05 0.176D-12
          Norm of current diis error: 0.61284E-04
          max. resid. norm for Fia-block=  4.716D-06 for orbital    273a         
          max. resid. fock norm         =  5.256D-04 for orbital   3092a         
          Delta Eig. =     0.0026010669 eV 
 
                                              current damping :  0.550
 ITERATION  ENERGY          1e-ENERGY        2e-ENERGY     RMS[dD(SAO)]   TOL
  17  -4189.6317616392    -38780.736664     18021.972106    0.366D-06 0.160D-12
          Norm of current diis error: 0.27534E-04
          max. resid. norm for Fia-block=  1.894D-06 for orbital    273a         
          max. resid. fock norm         =  2.167D-04 for orbital   3092a         
          Delta Eig. =     0.0011749069 eV 

 ENERGY & DENSITY CONVERGED !

 
                                              current damping :  0.400
 ITERATION  ENERGY          1e-ENERGY        2e-ENERGY     RMS[dD(SAO)]   TOL
  18  -4189.6317616181    -38780.736699     18021.972140    0.149D-06 0.145D-12
          max. resid. norm for Fia-block=  4.887D-07 for orbital    273a         
          max. resid. fock norm         =  7.842D-05 for orbital   3092a         

 convergence criteria satisfied after    18 iterations


                  ------------------------------------------ 
                 |  total energy      =  -4189.63176161810  |
                  ------------------------------------------ 
                 :  kinetic energy    =   4182.83786819094  :
                 :  potential energy  =  -8372.46962980904  :
                 :  virial theorem    =      1.99837840321  :
                 :  wavefunction norm =      1.00000000000  :
                  .......................................... 


 <geterg> : there is no data group $energy 


 <skperg> : $end is missing 


 orbitals $scfmo  will be written to file mos

    irrep                297a        298a        299a        300a        301a   
 eigenvalues H         -0.39606    -0.39308    -0.39306    -0.38937    -0.38929
            eV         -10.7773    -10.6962    -10.6957    -10.5953    -10.5933
 occupation              2.0000      2.0000      2.0000      2.0000      2.0000 

    irrep                302a        303a        304a        305a        306a   
 eigenvalues H          0.07691     0.07901     0.07904     0.08500     0.08501
            eV           2.0930      2.1500      2.1507      2.3131      2.3133
 
 
 
 
 ==============================================================================
                           electrostatic moments
 ==============================================================================

 reference point for electrostatic moments:    0.00000   0.00000   0.00000

 
              nuc           elec       ->  total
 ------------------------------------------------------------------------------
                          charge      
 ------------------------------------------------------------------------------
         602.000000    -602.000000      -0.000000
 
 ------------------------------------------------------------------------------
                       dipole moment  
 ------------------------------------------------------------------------------
   x     -12.656752      12.643986      -0.012765
   y       0.983334      -0.983179       0.000156
   z       0.365306      -0.363926       0.001381
 
   | dipole moment | =     0.0128 a.u. =     0.0326 debye 
 
 ------------------------------------------------------------------------------
                     quadrupole moment
 ------------------------------------------------------------------------------
  xx   29900.895855  -30115.246261    -214.350406
  yy   29773.058731  -29987.291614    -214.232883
  zz    7620.137706   -8094.721731    -474.584025
  xy       6.361157      -6.496735      -0.135577
  xz    -492.259099     486.442994      -5.816105
  yz    -431.697051     425.935069      -5.761982
 
     1/3  trace=    -301.055771
     anisotropy=     260.678483
 
 ==============================================================================
 


    ------------------------------------------------------------------------
         total  cpu-time :   5 days 13 hours 28 minutes and 46 seconds
         total wall-time :  5 hours  2 minutes and 26 seconds
    ------------------------------------------------------------------------

   ****  dscf : all done  ****


    2018-02-21 15:35:28.586 

