Using Slurm to start processes with PMI2
STARTING ridft ON 8 PROCESSORS!
RUNNING PROGRAM /beegfs/modfac/apps/TURBOMOLE/7.0_intel_GA/bin/em64t-unknown-linux-gnu_mpi/ridft_mpi.
PLEASE WAIT UNTIL ridft HAS FINISHED.
Look for the output in slave1.output.
  this is node-proc. number 1 running on node c-8-28.local
  the total number of node-proc. spawned is            8
  parallel platform: MPP, or cluster with fast interconnect

 ridft (c-8-28.local) : TURBOMOLE V7.0.2( ) 15 Jan 2016 at 17:47:42
 Copyright (C) 2016 TURBOMOLE GmbH, Karlsruhe


    2017-11-07 20:40:15.002 



                                  r i d f t

                        DFT program with RI approximation 
                                for coulomb part 




                                                 
                                 References:     
                                                 
          TURBOMOLE:                             
              R. Ahlrichs, M. Baer, M. Haeser, H. Horn, and
              C. Koelmel
              Electronic structure calculations on workstation
              computers: the program system TURBOMOLE
              Chem. Phys. Lett. 162: 165 (1989)
          Density Functional:                              
              O. Treutler and R. Ahlrichs                      
              Efficient Molecular Numerical Integration Schemes
              J. Chem. Phys. 102: 346 (1995)                   
          Parallel Version:                                
              Performance of parallel TURBOMOLE for Density    
              Functional Calculations                          
              M. v. Arnim and R. Ahlrichs                      
              J. Comp. Chem. 19: 1746 (1998)                   
          RI-J Method:                                     
              Auxiliary Basis Sets to approximate Coulomb      
              Potentials                                       
              Chem. Phys. Lett. 240: 283 (1995)                
              K. Eichkorn, O. Treutler, H. Oehm, M. Haeser     
              and R. Ahlrichs                                  
              Chem. Phys. Lett. 242: 652 (1995)                
                                                           
              Auxiliary Basis Sets for Main Row Atoms and their
              Use to approximate Coulomb Potentials            
              K. Eichkorn, F. Weigend, O. Treutler and         
              R. Ahlrichs                                      
              Theo. Chem. Acc. 97: 119 (1997)                   
                                                           
              Accurate Coulomb-fitting basis sets for H to Rn 
              F. Weigend                                        
              Phys. Chem. Chem. Phys. 8: 1057 (2006)            
                                                           
          Multipole accelerated RI-J (MARI-J):             
              Fast evaluation of the Coulomb potential for     
              electron densities using multipole accelerated   
              resolution of identity approximation             
              M. Sierka, A. Hogekamp and R. Ahlrichs           
              J. Chem. Phys. 118: 9136 (2003)                  
          RI-JK Method:                                     
              A fully direct RI-HF algorithm: Implementation,
              optimised auxiliary basis sets, demonstration of
              accuracy and efficiency                         
              F. Weigend                                      
              Phys. Chem. Chem. Phys. 4: 4285 (2002)           
          Two-component HF and DFT with spin-orbit coupling:  
              Self-consistent treatment of spin-orbit         
              interactions with efficient Hartree-Fock and    
              density functional methods                      
              M. K. Armbruster, F. Weigend, C. van Wüllen and 
              W. Klopper                                      
              Phys. Chem. Chem. Phys. 10: 1748 (2008)         
          Relativistic all-electron 2c calculations           
              An efficient implementation of two-component    
              relativistic exact-decoupling methods for large 
              molecules                                       
              D. Peng, N. Middendorf, F. Weigend, M. Reiher   
              J. Chem. Phys. 138, 184105 (2013)               
                                         


 


              +--------------------------------------------------+
              |      general information about current run       |
              +--------------------------------------------------+

 

 SCF run will be profiled !


 DENSITY CONVERGENCE CHECK SWITCHED ON !
 SCF CONVERGENCE IF RMS(delta[D]) <     0.1000000000E-06

 TPSS meta-GGA functional
 exchange:    LDA + TPSS
 correlation: LDA (PW) + TPSS
 A DFT calculation using the RI-J approximation will be carried out.
 Allocatable memory for RI due to $ricore (MB):       12000


              +--------------------------------------------------+
              | Atomic coordinate, charge and isotop information |
              +--------------------------------------------------+

                    atomic coordinates            atom    charge  isotop
          7.50692779    0.49846164    2.36346490    c      6.000     0
          8.62078804    0.33290276   -2.00597125    c      6.000     0
          5.95819788   -0.05647426   -3.01401356    c      6.000     0
          4.67770151    0.14224075    2.00197627    c      6.000     0
          3.96939402   -1.75974743   -0.77643697    s     16.000     0
          8.64833883    1.79137476    0.27536561    o      8.000     0
          3.86277564   -0.88265374    3.59788085    h      1.000     0
          6.00096551   -1.22493620   -4.71658316    h      1.000     0
          5.08432889    1.76184990   -3.46516245    h      1.000     0
          3.72100414    1.96827378    1.84572995    h      1.000     0
          8.44060540   -1.33869743    2.63880990    h      1.000     0
          9.54137452   -1.49520974   -1.65532081    h      1.000     0
          9.75438189    1.40172679   -3.36242583    h      1.000     0
          7.87100102    1.69123866    4.01077685    h      1.000     0
 
       center of nuclear mass  :    6.16111026   -0.14256489   -0.28286864
       center of nuclear charge:    6.20634184   -0.11501042   -0.27238613

              +--------------------------------------------------+
              |               basis set information              |
              +--------------------------------------------------+

              we will work with the 1s 3p 5d 7f 9g ... basis set
              ...i.e. with spherical basis functions...

   type   atoms  prim   cont   basis
   ---------------------------------------------------------------------------
    c        4     50     30   cc-pVTZ   [4s3p2d1f|18s5p2d1f]
    s        1    106     34   cc-pVTZ   [5s4p2d1f|41s16p2d1f]
    o        1     50     30   cc-pVTZ   [4s3p2d1f|18s5p2d1f]
    h        8     16     14   cc-pVTZ   [3s2p1d|5s2p1d]
   ---------------------------------------------------------------------------
   total:   14    484    296
   ---------------------------------------------------------------------------

   total number of primitive shells          :  120
   total number of contracted shells         :  110
   total number of cartesian basis functions :  334
   total number of SCF-basis functions       :  296


 integral neglect threshold       :  0.10E-12
 integral storage threshold THIZE :  0.10E-04
 integral storage threshold THIME :         5

 RI-J AUXILIARY BASIS SET information:

              we will work with the 1s 3p 5d 7f 9g ... basis set
              ...i.e. with spherical basis functions...

   type   atoms  prim   cont   basis
   ---------------------------------------------------------------------------
    c        4     70     49   cc-pVTZ   [6s4p3d1f1g|12s5p4d2f1g]
    s        1     77     51   cc-pVTZ   [8s4p3d1f1g|14s5p5d2f1g]
    o        1     70     49   cc-pVTZ   [6s4p3d1f1g|12s5p4d2f1g]
    h        8     16     11   cc-pVTZ   [3s1p1d|5s2p1d]
   ---------------------------------------------------------------------------
   total:   14    555    384
   ---------------------------------------------------------------------------

   total number of primitive shells          :   83
   total number of contracted shells         :  132
   total number of cartesian basis functions :  464
   total number of SCF-basis functions       :  384


 symmetry group of the molecule :   c1 

 the group has the following generators :
   c1(z)

    1 symmetry operations found

 there are 1 real representations :   a   

 maximum number of shells which are related by symmetry :  1


    mo occupation :
   irrep   mo's   occupied
    a      296       28
 
 number of basis functions   :          296
 number of occupied orbitals :           28
 
  
           ------------------
           density functional
           ------------------
 TPSS meta-GGA functional
 exchange:    LDA + TPSS
 correlation: LDA (PW) + TPSS
 grinp -> nfun, dfgga, dfhybrid 
           5 F F
 iterations will be done with small grid
  
 spherical integration : Lebedev's spherical grid
 spherical gridsize    :           5
    i.e. gridpoints    :         590
 value for diffuse not defined
 radial integration    : Chebyshev 2nd kind (scaling 3)
 radial gridsize       :           8
 integration cells     :          14
 partition function    : becke
 partition sharpness   :           3
  

 <rddim> : input of entry tasksize
           from data group '$pardft' failed !

               Default values taken

 <rddim> : input of entry memdiv
           from data group '$pardft' failed !

               Default values taken
  RIDFT: memory allocation for DFT gridpoints
  MEMORY is divided by 1 as DEFAULT
 Each node can hold at most  the            1 -th part
 of the gridpoints    

 biggest AO integral is expected to be     9.679779311
  
           ------------------------
               RI-J - INFORMATION
           ------------------------
 
 
 **************************************************
 *      MEMORY ALLOCATION FOR PARALLEL RI-DFT     *
 **************************************************
 
 
MEMORY FOR (MU NU/ ALPHA), SEQUENTIAL RUN              11999 MByte
 
            DIFFERENCE IN MEMORY NEED:       DIAG./SLAVE  
 
      TOTAL DIFFERENCE :                      5 MByte
 
      difference in xcore:                    2 MByte
      difference in fatmat:                   2 MByte
      getcor calls skipped by slaves:         3 MByte
 
 
           Integral memory available for diagonal.     11999 MByte
 
           Integral memory available for slave             0 MByte
 
         MEMORY FOR (MU NU/ ALPHA) ON DIAGONALIZER     11999 MByte
 
         MEMORY FOR (MU NU/ ALPHA) ON ONE SLAVE            0 MByte
 
         TOTAL MEMORY FOR (MU NU/ ALPHA),ALL NODES     11999 MByte
 
 Contributions to RI integral batches: 
  neglected integral batches:         201
  direct contribution:                  0
  memory contribution:        5904
 Memory core needed for (P|Q) and Cholesky      2 MByte
 Memory core minimum needed except of (P|Q)     1 MByte
 Total minimum memory core needed (sum)         2 MByte
  
 ****************************************
 Memory allocated for RI-J 12001 MByte
 ****************************************
                                            

          ------------------------
          nuclear repulsion energy  :   316.121812946    
          ------------------------

 
          -----------------
          -S integrals
          -----------------

 1e-integrals will be neglected if expon. factor < 0.100059E-13
 
          -----------------
          -T+V integrals
          -----------------

 1e-integrals will be neglected if expon. factor < 0.100059E-13
 Difference densities >>NOT<< switched on in parallel ridft!

 automatic virtual orbital shift switched on 
      shift if e(lumo)-e(homo) < 0.10000000    


 DIIS switched on: error vector is FDS-SDF
 Max. Iterations for DIIS is     :   4
 DIIS matrix (see manual) 
    Scaling factor of diagonals  :  1.200
    threshold for scaling factor :  0.000

 scf convergence criterion : increment of total energy < .1000000D-08
                  and increment of one-electron energy < .1000000D-05


 <geterg> : there is no data group $energy 

  MOs are in ASCII format !


 reading orbital data $scfmo  from file mos . 

 orbital characterization : expanded
 
 mo provided and orthogonalized by Cholesky decomposition

 DSCF restart information will be dumped onto file mos


 Starting SCF iterations


 ITERATION  ENERGY          1e-ENERGY        2e-ENERGY     RMS[dD(SAO)]   TOL
   1  -629.55648315397    -1487.9071397     542.22884363    0.000D+00 0.998D-13
                            Exc = -58.9031675624     Coul =  601.132011196    
                              N = 56.000011586    
                            current damping = 0.700
 
          max. resid. norm for Fia-block=  1.942D+00 for orbital      1a         
          max. resid. fock norm         =  4.405D+00 for orbital    293a         

 ITERATION  ENERGY          1e-ENERGY        2e-ENERGY     RMS[dD(SAO)]   TOL
   2  -630.57678182415    -1490.6122685     543.91367370    0.467D-02 0.998D-13
                            Exc = -58.8870731640     Coul =  602.800746863    
                              N = 55.999995297    
                            current damping = 0.650
 
          Norm of current diis error:  1.9761    
          max. resid. norm for Fia-block=  8.015D-01 for orbital      1a         
          max. resid. fock norm         =  9.553D-01 for orbital      1a         

 ITERATION  ENERGY          1e-ENERGY        2e-ENERGY     RMS[dD(SAO)]   TOL
   3  -630.74252082107    -1491.8226760     544.95834221    0.208D-02 0.998D-13
                            Exc = -59.0325805894     Coul =  603.990922798    
                              N = 55.999987816    
                            current damping = 0.550
 
          Norm of current diis error: 0.97848    
          max. resid. norm for Fia-block=  3.133D-01 for orbital      1a         
          max. resid. fock norm         =  3.716D-01 for orbital      1a         

 ITERATION  ENERGY          1e-ENERGY        2e-ENERGY     RMS[dD(SAO)]   TOL
   4  -630.79491684255    -1491.9339703     545.01724051    0.159D-02 0.998D-13
                            Exc = -59.0331971574     Coul =  604.050437668    
                              N = 55.999980718    
                            current damping = 0.400
 
          Norm of current diis error: 0.38462    
          max. resid. norm for Fia-block=  1.120D-01 for orbital      1a         
          max. resid. fock norm         =  1.334D-01 for orbital      1a         

 ITERATION  ENERGY          1e-ENERGY        2e-ENERGY     RMS[dD(SAO)]   TOL
   5  -630.80343522653    -1492.6788684     545.75362019    0.783D-03 0.998D-13
                            Exc = -59.1162520832     Coul =  604.869872277    
                              N = 55.999979168    
                            current damping = 0.300
 
          Norm of current diis error: 0.19214    
          max. resid. norm for Fia-block=  3.181D-02 for orbital      1a         
          max. resid. fock norm         =  3.779D-02 for orbital      1a         
          mo-orthogonalization: Cholesky decomposition

 ITERATION  ENERGY          1e-ENERGY        2e-ENERGY     RMS[dD(SAO)]   TOL
   6  -630.80542802521    -1492.3257559     545.39851493    0.606D-03 0.998D-13
                            Exc = -59.0850368059     Coul =  604.483551731    
                              N = 55.999977745    
                            current damping = 0.350
 
          Norm of current diis error: 0.64514E-01
          max. resid. norm for Fia-block=  7.344D-03 for orbital      1a         
          max. resid. fock norm         =  8.726D-03 for orbital      1a         

 ITERATION  ENERGY          1e-ENERGY        2e-ENERGY     RMS[dD(SAO)]   TOL
   7  -630.80562528241    -1492.4626987     545.53526050    0.915D-04 0.998D-13
                            Exc = -59.0964249557     Coul =  604.631685455    
                              N = 55.999977655    
                            current damping = 0.400
 
          Norm of current diis error: 0.13440E-01
          max. resid. norm for Fia-block=  1.897D-03 for orbital      1a         
          max. resid. fock norm         =  2.254D-03 for orbital      1a         

 ITERATION  ENERGY          1e-ENERGY        2e-ENERGY     RMS[dD(SAO)]   TOL
   8  -630.80563224586    -1492.4528051     545.52535995    0.249D-04 0.998D-13
                            Exc = -59.0970669319     Coul =  604.622426880    
                              N = 55.999977670    
                            current damping = 0.450
 
          Norm of current diis error: 0.70746E-02
          max. resid. norm for Fia-block=  5.503D-04 for orbital      1a         
          max. resid. fock norm         =  6.575D-04 for orbital      1a         

 ITERATION  ENERGY          1e-ENERGY        2e-ENERGY     RMS[dD(SAO)]   TOL
   9  -630.80563461957    -1492.4585800     545.53113239    0.975D-05 0.998D-13
                            Exc = -59.0973396456     Coul =  604.628472040    
                              N = 55.999977631    
                            current damping = 0.500
 
          Norm of current diis error: 0.10939E-02
          max. resid. norm for Fia-block=  1.661D-04 for orbital      1a         
          max. resid. fock norm         =  1.959D-04 for orbital      1a         

 ITERATION  ENERGY          1e-ENERGY        2e-ENERGY     RMS[dD(SAO)]   TOL
  10  -630.80563468183    -1492.4590771     545.53162950    0.305D-05 0.998D-13
                            Exc = -59.0972697677     Coul =  604.628899268    
                              N = 55.999977627    
                            current damping = 0.350
 
          Norm of current diis error: 0.41361E-03
          max. resid. norm for Fia-block=  5.566D-05 for orbital      1a         
          max. resid. fock norm         =  6.586D-05 for orbital      1a         
          mo-orthogonalization: Cholesky decomposition

 ITERATION  ENERGY          1e-ENERGY        2e-ENERGY     RMS[dD(SAO)]   TOL
  11  -630.80563468825    -1492.4597123     545.53226463    0.971D-06 0.998D-13
                            Exc = -59.0973635988     Coul =  604.629628227    
                              N = 55.999977627    
                            current damping = 0.200
 
          Norm of current diis error: 0.29160E-03
          max. resid. norm for Fia-block=  1.414D-05 for orbital      1a         
          max. resid. fock norm         =  1.964D-05 for orbital     25a         

 ITERATION  ENERGY          1e-ENERGY        2e-ENERGY     RMS[dD(SAO)]   TOL
  12  -630.80563469225    -1492.4592392     545.53179152    0.643D-06 0.998D-13
                            Exc = -59.0973223060     Coul =  604.629113829    
                              N = 55.999977625    
                            current damping = 0.250
 
          Norm of current diis error: 0.70079E-04
          max. resid. norm for Fia-block=  2.934D-06 for orbital     20a         
          max. resid. fock norm         =  4.074D-06 for orbital     14a         

 DENSITY CONVERGED !


 ITERATION  ENERGY          1e-ENERGY        2e-ENERGY     RMS[dD(SAO)]   TOL
  13  -630.80563469240    -1492.4594272     545.53197961    0.991D-07 0.998D-13
                            Exc = -59.0973326378     Coul =  604.629312248    
                              N = 55.999977625    
                            current damping = 0.300
 
          Norm of current diis error: 0.32776E-04
          max. resid. norm for Fia-block=  1.620D-06 for orbital     25a         
          max. resid. fock norm         =  2.150D-06 for orbital    142a         

 DENSITY CONVERGED !


 ITERATION  ENERGY          1e-ENERGY        2e-ENERGY     RMS[dD(SAO)]   TOL
  14  -630.80563469244    -1492.4593903     545.53194271    0.602D-07 0.998D-13
                            Exc = -59.0973290873     Coul =  604.629271798    
                              N = 55.999977625    
                            current damping = 0.350
 
          Norm of current diis error: 0.20243E-04
          max. resid. norm for Fia-block=  6.539D-07 for orbital     27a         
          max. resid. fock norm         =  9.451D-07 for orbital     25a         

 DENSITY CONVERGED !


 ITERATION  ENERGY          1e-ENERGY        2e-ENERGY     RMS[dD(SAO)]   TOL
  15  -630.80563469247    -1492.4593705     545.53192290    0.164D-07 0.998D-13
                            Exc = -59.0973294512     Coul =  604.629252356    
                              N = 55.999977625    
                            current damping = 0.200
 
          Norm of current diis error: 0.39530E-05
          max. resid. norm for Fia-block=  1.982D-07 for orbital     24a         
          max. resid. fock norm         =  3.205D-07 for orbital    264a         
          mo-orthogonalization: Cholesky decomposition

 ENERGY & DENSITY CONVERGED !


 ITERATION  ENERGY          1e-ENERGY        2e-ENERGY     RMS[dD(SAO)]   TOL
  16  -630.80561047789    -1492.4593833     545.53195991    0.745D-08 0.998D-13
                            Exc = -59.0973058145     Coul =  604.629265727    
                              N = 55.999995968    
                            current damping = 0.250
 
          Norm of current diis error: 0.11625E-05
          max. resid. norm for Fia-block=  4.141D-08 for orbital     28a         
          max. resid. fock norm         =  8.071D-08 for orbital     25a         

 End of SCF iterations

   convergence criteria satisfied after   16 iterations


                  ------------------------------------------ 
                 |  total energy      =   -630.80561047789  |
                  ------------------------------------------ 
                 :  kinetic energy    =    628.23220769040  :
                 :  potential energy  =  -1259.03781816830  :
                 :  virial theorem    =      1.99592045038  :
                 :  wavefunction norm =      1.00000000000  :
                  .......................................... 


 <geterg> : there is no data group $energy 


 <skperg> : $end is missing 


 orbitals $scfmo  will be written to file mos

    irrep                 24a         25a         26a         27a         28a   
 eigenvalues H         -0.30547    -0.30426    -0.26601    -0.22699    -0.19180
            eV          -8.3124     -8.2794     -7.2386     -6.1768     -5.2192
 occupation              2.0000      2.0000      2.0000      2.0000      2.0000 

    irrep                 29a         30a         31a         32a         33a   
 eigenvalues H          0.00604     0.02882     0.03991     0.05241     0.05254
            eV           0.1644      0.7842      1.0861      1.4262      1.4297
 
 
 ! grave: sending quit signal to master process
 
 
 
 
 ==============================================================================
                           electrostatic moments
 ==============================================================================

 reference point for electrostatic moments:    0.00000   0.00000   0.00000

 
              nuc           elec       ->  total
 ------------------------------------------------------------------------------
                          charge      
 ------------------------------------------------------------------------------
          56.000000     -56.000000      -0.000000
 
 ------------------------------------------------------------------------------
                       dipole moment  
 ------------------------------------------------------------------------------
   x     347.555143    -347.397105       0.158038
   y      -6.440583       6.510978       0.070395
   z     -15.253623      15.291305       0.037682
 
   | dipole moment | =     0.1771 a.u. =     0.4500 debye 
 
 ------------------------------------------------------------------------------
                     quadrupole moment
 ------------------------------------------------------------------------------
  xx    2388.776490   -2422.072509     -33.296018
  yy      95.626477    -130.914603     -35.288126
  zz     234.165338    -262.614657     -28.449319
  xy      60.761713     -62.669298      -1.907585
  xz     -99.031657      97.437593      -1.594065
  yz      32.741370     -33.071052      -0.329682
 
     1/3  trace=     -32.344488
     anisotropy=       7.481977
 
 ==============================================================================
 

    ridft profiling
  --------------------------------------------------------------------
             module   cpu total (s)       %  wall total (s)       %

               RIDFT            50.2  100.00            50.2  100.00
         Ridft_b_scf             2.1    4.15             2.1    4.16
        b_scf_prelim             0.0    0.00             0.0    0.00
        b_scf_molinp             0.0    0.04             0.0    0.04
         b_scf_init0             0.0    0.00             0.0    0.00
        b_scf_auxbas             0.0    0.03             0.0    0.03
      b_scf_symmetry             0.0    0.00             0.0    0.01
         b_scf_cosmo             0.0    0.00             0.0    0.00
        b_scf_params             0.3    0.61             0.3    0.61
          b_scf_ri-j             1.6    3.21             1.6    3.21
    b_scf_ri-j_auxpq             1.6    3.21             1.6    3.21
     ri-j_auxpq_chol             0.0    0.02             0.0    0.03
         b_scf_1elec             0.0    0.09             0.0    0.09
       b_scf_moinput             0.1    0.17             0.1    0.17
     moinput_orthmos             0.1    0.15             0.1    0.15
    b_scf_dft-dstmax             0.0    0.00             0.0    0.00
           Ridft_scf            48.1   95.81            48.1   95.76
          Scf_b_loop             0.0    0.00             0.0    0.01
                noga             0.0    0.00             0.0    0.00
            Scf_loop            48.0   95.66            48.0   95.61
     scf_loop_mkdmat             0.0    0.10             0.0    0.10
       scf_loop_ri-j             2.7    5.47             2.7    5.47
      parlp1.bc.dens             0.8    1.61             0.8    1.61
        parlp1.gs.gp             0.0    0.00             0.0    0.00
        parlp2.bc.gq             0.0    0.00             0.0    0.00
        scf_loop_dft            42.6   84.79            42.5   84.74
      pardft.bc.dens             0.0    0.00             0.0    0.00
        dft_grid_con             0.1    0.17             0.1    0.18
          dft_xcmrhf            41.5   82.70            41.5   82.63
          dft_getval             1.8    3.68             1.9    3.74
          funct2 dst             0.0    0.09             0.0    0.10
      funct2 f2loop1             0.6    1.25             0.6    1.24
      funct2 f2loop2             0.7    1.35             0.7    1.39
          funct2 s+c             0.4    0.77             0.4    0.81
        funct2 cmf_2             0.3    0.62             0.3    0.67
          dft_mkdens            21.1   42.13            21.1   42.07
        dft_mgga-fun             0.2    0.43             0.2    0.41
          dft_mkfock            18.2   36.26            18.2   36.21
     pardft.red.fock             4.9    9.84             4.9    9.84
     scf_loop_energy             0.0    0.00             0.0    0.01
     scf_loop_mkfock             0.0    0.01             0.0    0.01
       scf_loop_diis             0.3    0.69             0.3    0.68
       scf_loop_diag             1.3    2.68             1.3    2.68
         diag_tritrn             0.3    0.63             0.3    0.63
          diag_rdiag             1.0    2.04             1.0    2.03
     scf_loop_modump             0.8    1.67             0.8    1.67
      scf_loop_ortho             0.1    0.21             0.1    0.21
          Scf_a_loop             0.1    0.14             0.1    0.15
         Ridft_a_scf             0.0    0.04             0.0    0.08
         a_scf_fanal             0.0    0.04             0.0    0.04
 


    ------------------------------------------------------------------------
         total  cpu-time :  50.31 seconds
         total wall-time :  50.34 seconds
    ------------------------------------------------------------------------


   ****  ridft : all done  ****


    2017-11-07 20:41:05.340 

