 operating system is UNIX !
 hostname is         c-5-29.local

 ridft (c-5-29.local) : TURBOMOLE V7.0.2( ) 8 Jan 2016 at 10:54:38
 Copyright (C) 2016 TURBOMOLE GmbH, Karlsruhe


    2016-02-17 14:02:21.474 



                                  r i d f t

                        DFT program with RI approximation 
                                for coulomb part 




                                                 
                                 References:     
                                                 
          TURBOMOLE:                             
              R. Ahlrichs, M. Baer, M. Haeser, H. Horn, and
              C. Koelmel
              Electronic structure calculations on workstation
              computers: the program system TURBOMOLE
              Chem. Phys. Lett. 162: 165 (1989)
          Density Functional:                              
              O. Treutler and R. Ahlrichs                      
              Efficient Molecular Numerical Integration Schemes
              J. Chem. Phys. 102: 346 (1995)                   
          Parallel Version:                                
              Performance of parallel TURBOMOLE for Density    
              Functional Calculations                          
              M. v. Arnim and R. Ahlrichs                      
              J. Comp. Chem. 19: 1746 (1998)                   
          RI-J Method:                                     
              Auxiliary Basis Sets to approximate Coulomb      
              Potentials                                       
              Chem. Phys. Lett. 240: 283 (1995)                
              K. Eichkorn, O. Treutler, H. Oehm, M. Haeser     
              and R. Ahlrichs                                  
              Chem. Phys. Lett. 242: 652 (1995)                
                                                           
              Auxiliary Basis Sets for Main Row Atoms and their
              Use to approximate Coulomb Potentials            
              K. Eichkorn, F. Weigend, O. Treutler and         
              R. Ahlrichs                                      
              Theo. Chem. Acc. 97: 119 (1997)                   
                                                           
              Accurate Coulomb-fitting basis sets for H to Rn 
              F. Weigend                                        
              Phys. Chem. Chem. Phys. 8: 1057 (2006)            
                                                           
          Multipole accelerated RI-J (MARI-J):             
              Fast evaluation of the Coulomb potential for     
              electron densities using multipole accelerated   
              resolution of identity approximation             
              M. Sierka, A. Hogekamp and R. Ahlrichs           
              J. Chem. Phys. 118: 9136 (2003)                  
          RI-JK Method:                                     
              A fully direct RI-HF algorithm: Implementation,
              optimised auxiliary basis sets, demonstration of
              accuracy and efficiency                         
              F. Weigend                                      
              Phys. Chem. Chem. Phys. 4: 4285 (2002)           
          Two-component HF and DFT with spin-orbit coupling:  
              Self-consistent treatment of spin-orbit         
              interactions with efficient Hartree-Fock and    
              density functional methods                      
              M. K. Armbruster, F. Weigend, C. van Wüllen and 
              W. Klopper                                      
              Phys. Chem. Chem. Phys. 10: 1748 (2008)         
          Relativistic all-electron 2c calculations           
              An efficient implementation of two-component    
              relativistic exact-decoupling methods for large 
              molecules                                       
              D. Peng, N. Middendorf, F. Weigend, M. Reiher   
              J. Chem. Phys. 138, 184105 (2013)               
                                         


 


              +--------------------------------------------------+
              |      general information about current run       |
              +--------------------------------------------------+

 

 DENSITY CONVERGENCE CHECK SWITCHED ON !
 SCF CONVERGENCE IF RMS(delta[D]) <     0.1000000000E-06

 TPSS meta-GGA functional
 exchange:    LDA + TPSS
 correlation: LDA (PW) + TPSS
 A DFT calculation using the RI-J approximation will be carried out.
 Allocatable memory for RI due to $ricore (MB):        2000


              +--------------------------------------------------+
              | Atomic coordinate, charge and isotop information |
              +--------------------------------------------------+

                    atomic coordinates            atom    charge  isotop
         -2.41548766   -1.27832307    0.22817140    c      6.000     0
          2.41548766    1.27832307    0.22817140    c      6.000     0
          2.17103434   -1.41127114   -0.33113812    n      7.000     0
         -2.17103434    1.41127114   -0.33113812    n      7.000     0
         -0.00334869    2.78617917   -0.18601109    c      6.000     0
          0.00334869   -2.78617917   -0.18601109    c      6.000     0
          0.06087831    5.09385517   -0.37182255    o      8.000     0
         -0.06087831   -5.09385517   -0.37182255    o      8.000     0
         -3.77129674    2.44916265   -0.52981132    h      1.000     0
          3.77129674   -2.44916265   -0.52981132    h      1.000     0
         -3.85018467   -2.10927278   -1.00190138    h      1.000     0
          3.85018467    2.10927278   -1.00190138    h      1.000     0
         -3.01757043   -1.59441444    2.19251306    h      1.000     0
          3.01757043    1.59441444    2.19251306    h      1.000     0
 
       center of nuclear mass  :    0.00000000    0.00000000   -0.16501750
       center of nuclear charge:    0.00000000    0.00000000   -0.14595950

              +--------------------------------------------------+
              |               basis set information              |
              +--------------------------------------------------+

              we will work with the 1s 3p 5d 7f 9g ... basis set
              ...i.e. with spherical basis functions...

   type   atoms  prim   cont   basis
   ---------------------------------------------------------------------------
    c        4     77     55   cc-pVQZ   [5s4p3d2f1g|21s6p3d2f1g]
    n        2     77     55   cc-pVQZ   [5s4p3d2f1g|21s6p3d2f1g]
    o        2     77     55   cc-pVQZ   [5s4p3d2f1g|21s6p3d2f1g]
    h        6     32     30   cc-pVQZ   [4s3p2d1f|6s3p2d1f]
   ---------------------------------------------------------------------------
   total:   14    808    620
   ---------------------------------------------------------------------------

   total number of primitive shells          :  111
   total number of contracted shells         :  180
   total number of cartesian basis functions :  770
   total number of SCF-basis functions       :  620


 integral neglect threshold       :  0.43E-13
 integral storage threshold THIZE :  0.10E-04
 integral storage threshold THIME :         5

 RI-J AUXILIARY BASIS SET information:

              we will work with the 1s 3p 5d 7f 9g ... basis set
              ...i.e. with spherical basis functions...

   type   atoms  prim   cont   basis
   ---------------------------------------------------------------------------
    c        4     70     49   cc-pVQZ   [6s4p3d1f1g|12s5p4d2f1g]
    n        2     70     49   cc-pVQZ   [6s4p3d1f1g|12s5p4d2f1g]
    o        2     70     49   cc-pVQZ   [6s4p3d1f1g|12s5p4d2f1g]
    h        6     16     11   cc-pVQZ   [3s1p1d|5s2p1d]
   ---------------------------------------------------------------------------
   total:   14    656    458
   ---------------------------------------------------------------------------

   total number of primitive shells          :   80
   total number of contracted shells         :  150
   total number of cartesian basis functions :  560
   total number of SCF-basis functions       :  458


 symmetry group of the molecule :   c1 

 the group has the following generators :
   c1(z)

    1 symmetry operations found

 there are 1 real representations :   a   

 maximum number of shells which are related by symmetry :  1


    mo occupation :
   irrep   mo's   occupied
    a      620       30
 
 number of basis functions   :          620
 number of occupied orbitals :           30
 
  
           ------------------
           density functional
           ------------------
 TPSS meta-GGA functional
 exchange:    LDA + TPSS
 correlation: LDA (PW) + TPSS
 iterations will be done with small grid
  
 spherical integration : Lebedev's spherical grid
 spherical gridsize    :           5
    i.e. gridpoints    :         590
 value for diffuse not defined
 radial integration    : Chebyshev 2nd kind (scaling 3)
 radial gridsize       :           8
 integration cells     :          14
 partition function    : becke
 partition sharpness   :           3
  

 biggest AO integral is expected to be     4.785886462
  
           ------------------------
               RI-J - INFORMATION
           ------------------------
 Contributions to RI integral batches: 
  neglected integral batches:        2296
  direct contribution:                  0
  memory contribution:       13994
 Memory core needed for (P|Q) and Cholesky      2 MByte
 Memory core minimum needed except of (P|Q)     3 MByte
 Total minimum memory core needed (sum)         4 MByte
  
 ****************************************
 Memory allocated for RI-J  1095 MByte
 ****************************************
                                            

          ------------------------
          nuclear repulsion energy  :   373.465409978    
          ------------------------

 
          -----------------
          -S,T+V- integrals
          -----------------

 1e-integrals will be neglected if expon. factor < 0.434021E-14
 
   Difference densities algorithm switched on.
   The maximal number of linear combinations of
   difference densities is          20 .

 automatic virtual orbital shift switched on 
      shift if e(lumo)-e(homo) < 0.10000000    


 DIIS switched on: error vector is FDS-SDF
 Max. Iterations for DIIS is     :   4
 DIIS matrix (see manual) 
    Scaling factor of diagonals  :  1.200
    threshold for scaling factor :  0.000

 scf convergence criterion : increment of total energy < .1000000D-08
                  and increment of one-electron energy < .1000000D-05


 <geterg> : there is no data group $energy 

  MOs are in ASCII format !


 reading orbital data $scfmo  from file mos . 

 orbital characterization : expanded
 
 mo provided and orthogonalized by Cholesky decomposition

 DSCF restart information will be dumped onto file mos


 Starting SCF iterations

          Overall gridpoints after grid construction =         70354

 ITERATION  ENERGY          1e-ENERGY        2e-ENERGY     RMS[dD(SAO)]   TOL
   1  -414.36303979377    -1296.8240891     508.99563929    0.000D+00 0.433D-13
                            Exc = -54.8029937182     Coul =  563.798633007    
                              N = 60.000028950    
                            current damping = 0.700
 
          max. resid. norm for Fia-block=  4.076D-01 for orbital     20a         
          max. resid. fock norm         =  1.150D+01 for orbital    567a         

 ITERATION  ENERGY          1e-ENERGY        2e-ENERGY     RMS[dD(SAO)]   TOL
   2  -415.95590815214    -1303.0845056     513.66318744    0.390D-02 0.297D-13
                            Exc = -54.8008041865     Coul =  568.463991626    
                              N = 60.000027699    
                            current damping = 0.650
 
          Norm of current diis error:  3.1794    
          max. resid. norm for Fia-block=  1.637D-01 for orbital      1a         
          max. resid. fock norm         =  3.476D-01 for orbital    565a         

 ITERATION  ENERGY          1e-ENERGY        2e-ENERGY     RMS[dD(SAO)]   TOL
   3  -416.17776824323    -1305.6127678     515.96958955    0.232D-02 0.222D-13
                            Exc = -55.0922641186     Coul =  571.061853668    
                              N = 60.000024417    
                            current damping = 0.550
 
          Norm of current diis error:  1.5057    
          max. resid. norm for Fia-block=  6.391D-02 for orbital      1a         
          max. resid. fock norm         =  8.565D-02 for orbital    314a         

 ITERATION  ENERGY          1e-ENERGY        2e-ENERGY     RMS[dD(SAO)]   TOL
   4  -416.24451149002    -1305.8438508     516.13392934    0.192D-02 0.182D-13
                            Exc = -55.0336452722     Coul =  571.167574617    
                              N = 60.000022341    
                            current damping = 0.400
 
          Norm of current diis error: 0.64123    
          max. resid. norm for Fia-block=  3.190D-02 for orbital     10a         
          max. resid. fock norm         =  7.370D-02 for orbital    597a         

 ITERATION  ENERGY          1e-ENERGY        2e-ENERGY     RMS[dD(SAO)]   TOL
   5  -416.25249925031    -1306.2395257     516.52161651    0.800D-03 0.168D-13
                            Exc = -55.1426681687     Coul =  571.664284679    
                              N = 60.000021869    
                            current damping = 0.250
 
          Norm of current diis error: 0.47670    
          max. resid. norm for Fia-block=  1.114D-02 for orbital     29a         
          max. resid. fock norm         =  1.359D-02 for orbital    458a         
          mo-orthogonalization: Cholesky decomposition

 ITERATION  ENERGY          1e-ENERGY        2e-ENERGY     RMS[dD(SAO)]   TOL
   6  -416.25880090063    -1306.5554043     516.83119342    0.684D-03 0.158D-13
                            Exc = -55.1369668424     Coul =  571.968160259    
                              N = 60.000020979    
                            current damping = 0.100
 
          Norm of current diis error: 0.13106    
          max. resid. norm for Fia-block=  4.393D-03 for orbital     27a         
          max. resid. fock norm         =  5.984D-03 for orbital    569a         

 ITERATION  ENERGY          1e-ENERGY        2e-ENERGY     RMS[dD(SAO)]   TOL
   7  -416.25906831064    -1306.2566013     516.53212298    0.189D-03 0.154D-13
                            Exc = -55.1097860140     Coul =  571.641908993    
                              N = 60.000021005    
                            current damping = 0.150
 
          Norm of current diis error: 0.81699E-01
          max. resid. norm for Fia-block=  1.738D-03 for orbital     24a         
          max. resid. fock norm         =  2.560D-03 for orbital    602a         

 ITERATION  ENERGY          1e-ENERGY        2e-ENERGY     RMS[dD(SAO)]   TOL
   8  -416.25920666460    -1306.3882591     516.66364246    0.567D-04 0.153D-13
                            Exc = -55.1287565906     Coul =  571.792399052    
                              N = 60.000020997    
                            current damping = 0.200
 
          Norm of current diis error: 0.23251E-01
          max. resid. norm for Fia-block=  5.177D-04 for orbital     23a         
          max. resid. fock norm         =  7.822D-04 for orbital     23a         

 ITERATION  ENERGY          1e-ENERGY        2e-ENERGY     RMS[dD(SAO)]   TOL
   9  -416.25921947873    -1306.4166509     516.69202140    0.993D-05 0.152D-13
                            Exc = -55.1278518695     Coul =  571.819873269    
                              N = 60.000020983    
                            current damping = 0.050
 
          Norm of current diis error: 0.79386E-02
          max. resid. norm for Fia-block=  1.873D-04 for orbital     22a         
          max. resid. fock norm         =  2.880D-04 for orbital    469a         

 ITERATION  ENERGY          1e-ENERGY        2e-ENERGY     RMS[dD(SAO)]   TOL
  10  -416.25922003827    -1306.3887990     516.66416896    0.109D-04 0.152D-13
                            Exc = -55.1260840129     Coul =  571.790252974    
                              N = 60.000020972    
                            current damping = 0.100
 
          Norm of current diis error: 0.53122E-02
          max. resid. norm for Fia-block=  1.258D-04 for orbital     28a         
          max. resid. fock norm         =  2.118D-04 for orbital    539a         
          mo-orthogonalization: Cholesky decomposition

 ITERATION  ENERGY          1e-ENERGY        2e-ENERGY     RMS[dD(SAO)]   TOL
  11  -416.25922078618    -1306.3984656     516.67383483    0.670D-05 0.151D-13
                            Exc = -55.1271193638     Coul =  571.800954195    
                              N = 60.000020981    
                            current damping = 0.150
 
          Norm of current diis error: 0.14520E-02
          max. resid. norm for Fia-block=  3.247D-05 for orbital     27a         
          max. resid. fock norm         =  5.320D-05 for orbital    572a         

 ITERATION  ENERGY          1e-ENERGY        2e-ENERGY     RMS[dD(SAO)]   TOL
  12  -416.25922083397    -1306.3996369     516.67500606    0.914D-06 0.150D-13
                            Exc = -55.1271062931     Coul =  571.802112357    
                              N = 60.000020979    
                            current damping = 0.050
 
          Norm of current diis error: 0.62070E-03
          max. resid. norm for Fia-block=  1.584D-05 for orbital     16a         
          max. resid. fock norm         =  2.507D-05 for orbital    457a         

 ITERATION  ENERGY          1e-ENERGY        2e-ENERGY     RMS[dD(SAO)]   TOL
  13  -416.25922083878    -1306.3982910     516.67366019    0.422D-06 0.149D-13
                            Exc = -55.1269606505     Coul =  571.800620840    
                              N = 60.000020980    
                            current damping = 0.100
 
          Norm of current diis error: 0.37352E-03
          max. resid. norm for Fia-block=  7.788D-06 for orbital     24a         
          max. resid. fock norm         =  1.005D-05 for orbital    538a         

 ITERATION  ENERGY          1e-ENERGY        2e-ENERGY     RMS[dD(SAO)]   TOL
  14  -416.25922084199    -1306.3987878     516.67415703    0.299D-06 0.148D-13
                            Exc = -55.1270434992     Coul =  571.801200528    
                              N = 60.000020980    
                            current damping = 0.150
 
          Norm of current diis error: 0.78270E-04
          max. resid. norm for Fia-block=  1.534D-06 for orbital     24a         
          max. resid. fock norm         =  2.175D-06 for orbital     23a         

 DENSITY CONVERGED !


 ITERATION  ENERGY          1e-ENERGY        2e-ENERGY     RMS[dD(SAO)]   TOL
  15  -416.25922084215    -1306.3988536     516.67422280    0.343D-07 0.148D-13
                            Exc = -55.1270374026     Coul =  571.801260201    
                              N = 60.000020980    
                            current damping = 0.050
 
          Norm of current diis error: 0.27047E-04
          max. resid. norm for Fia-block=  6.569D-07 for orbital     16a         
          max. resid. fock norm         =  1.030D-06 for orbital     15a         
          mo-orthogonalization: Cholesky decomposition

 DENSITY CONVERGED !


 ITERATION  ENERGY          1e-ENERGY        2e-ENERGY     RMS[dD(SAO)]   TOL
  16  -416.25922084213    -1306.3987677     516.67413690    0.361D-07 0.147D-13
                            Exc = -55.1270317694     Coul =  571.801168670    
                              N = 60.000020980    
                            current damping = 0.100
 
          Norm of current diis error: 0.19653E-04
          max. resid. norm for Fia-block=  4.055D-07 for orbital     28a         
          max. resid. fock norm         =  6.670D-07 for orbital    539a         

 DENSITY CONVERGED !


 ITERATION  ENERGY          1e-ENERGY        2e-ENERGY     RMS[dD(SAO)]   TOL
  17  -416.25922084215    -1306.3987910     516.67416018    0.202D-07 0.146D-13
                            Exc = -55.1270347580     Coul =  571.801194934    
                              N = 60.000020980    
                            current damping = 0.150
 
          Norm of current diis error: 0.45403E-05
          max. resid. norm for Fia-block=  1.094D-07 for orbital     27a         
          max. resid. fock norm         =  1.828D-07 for orbital    457a         

 ENERGY & DENSITY CONVERGED !

          Overall gridpoints after grid construction =        224646

 ITERATION  ENERGY          1e-ENERGY        2e-ENERGY     RMS[dD(SAO)]   TOL
  18  -416.25912917264    -1306.3988049     516.67426578    0.304D-08 0.147D-13
                            Exc = -55.1269439044     Coul =  571.801209688    
                              N = 60.000003009    
                            current damping = 0.050
 
          Norm of current diis error: 0.23460E-05
          max. resid. norm for Fia-block=  4.418D-08 for orbital     27a         
          max. resid. fock norm         =  7.057D-08 for orbital    457a         

 End of SCF iterations

   convergence criteria satisfied after   18 iterations


                  ------------------------------------------ 
                 |  total energy      =   -416.25912917264  |
                  ------------------------------------------ 
                 :  kinetic energy    =    414.57646495344  :
                 :  potential energy  =   -830.83559412608  :
                 :  virial theorem    =      1.99595765209  :
                 :  wavefunction norm =      1.00000000000  :
                  .......................................... 


 <geterg> : there is no data group $energy 


 <skperg> : $end is missing 


 orbitals $scfmo  will be written to file mos

    irrep                 26a         27a         28a         29a         30a   
 eigenvalues H         -0.33041    -0.25022    -0.24240    -0.23072    -0.22121
            eV          -8.9911     -6.8090     -6.5961     -6.2782     -6.0196
 occupation              2.0000      2.0000      2.0000      2.0000      2.0000 

    irrep                 31a         32a         33a         34a         35a   
 eigenvalues H         -0.03281    -0.02572    -0.00898     0.01649     0.03749
            eV          -0.8929     -0.6999     -0.2443      0.4488      1.0201
 
 
 
 
 ==============================================================================
                           electrostatic moments
 ==============================================================================

 reference point for electrostatic moments:    0.00000   0.00000   0.00000

 
              nuc           elec       ->  total
 ------------------------------------------------------------------------------
                          charge      
 ------------------------------------------------------------------------------
          60.000000     -60.000000       0.000000
 
 ------------------------------------------------------------------------------
                       dipole moment  
 ------------------------------------------------------------------------------
   x       0.000000       0.000000       0.000000
   y       0.000000       0.000000       0.000000
   z      -8.757570       9.073443       0.315873
 
   | dipole moment | =     0.3159 a.u. =     0.8029 debye 
 
 ------------------------------------------------------------------------------
                     quadrupole moment
 ------------------------------------------------------------------------------
  xx     212.366528    -238.524537     -26.158009
  yy     581.783399    -633.428619     -51.645220
  zz      16.970354     -50.732178     -33.761824
  xy       6.399811      -7.773377      -1.373566
  xz       0.000000       0.000000       0.000000
  yz       0.000000       0.000000       0.000000
 
     1/3  trace=     -37.188351
     anisotropy=      22.787627
 
 ==============================================================================
 
 


    ------------------------------------------------------------------------
         total  cpu-time :  8 minutes and 27 seconds
         total wall-time :  8 minutes and 27 seconds
    ------------------------------------------------------------------------


   ****  ridft : all done  ****


    2016-02-17 14:10:48.259 

