 this is node-proc. number 0 running on node c-15-33.local
 the total number of node-proc. spawned is   3

 dscfserver (c-15-33.local) : TURBOMOLE V7.2 ( 21471 ) 7 Nov 2017 at 16:15:16
 Copyright (C) 2017 TURBOMOLE GmbH, Karlsruhe


    2018-02-14 09:35:53.944 

 
    0:00:00 ---- Start global counter...
    0:00:48 ---- ... finished.
 
    0:00:49 ---- Start global counter...
    0:01:26 ---- ... finished.
 
    0:01:27 ---- Start global counter...
    0:01:58 ---- ... finished.
 
    0:01:59 ---- Start global counter...
    0:02:26 ---- ... finished.
 
    0:02:27 ---- Start global counter...
    0:02:52 ---- ... finished.
 
    0:02:53 ---- Start global counter...
    0:03:13 ---- ... finished.
 
    0:03:14 ---- ByeBye Tag received


 ! Total wall-clock time in seconds  :      194.5
 ! Time (sec) spent in global counter:      188.6
 ! So-called SERIAL wall-clock time  :        5.9

  *** Regular termination of server ***
 total turnaround time of dscfserver   194.79 sec
 cpu elapsed by dscfserver process     188.29 sec 

   ***  dscf server : all done  ***


    2018-02-14 09:39:08.735 

