Using Slurm to start processes with PMI2
STARTING ridft ON 8 PROCESSORS!
RUNNING PROGRAM /beegfs/modfac/apps/TURBOMOLE/7.0_intel_GA/bin/em64t-unknown-linux-gnu_mpi/ridft_mpi.
PLEASE WAIT UNTIL ridft HAS FINISHED.
Look for the output in slave1.output.
  this is node-proc. number 1 running on node c-8-24.local
  the total number of node-proc. spawned is            8
  parallel platform: MPP, or cluster with fast interconnect

 ridft (c-8-24.local) : TURBOMOLE V7.0.2( ) 15 Jan 2016 at 17:47:42
 Copyright (C) 2016 TURBOMOLE GmbH, Karlsruhe


    2017-11-13 11:13:41.661 



                                  r i d f t

                        DFT program with RI approximation 
                                for coulomb part 




                                                 
                                 References:     
                                                 
          TURBOMOLE:                             
              R. Ahlrichs, M. Baer, M. Haeser, H. Horn, and
              C. Koelmel
              Electronic structure calculations on workstation
              computers: the program system TURBOMOLE
              Chem. Phys. Lett. 162: 165 (1989)
          Density Functional:                              
              O. Treutler and R. Ahlrichs                      
              Efficient Molecular Numerical Integration Schemes
              J. Chem. Phys. 102: 346 (1995)                   
          Parallel Version:                                
              Performance of parallel TURBOMOLE for Density    
              Functional Calculations                          
              M. v. Arnim and R. Ahlrichs                      
              J. Comp. Chem. 19: 1746 (1998)                   
          RI-J Method:                                     
              Auxiliary Basis Sets to approximate Coulomb      
              Potentials                                       
              Chem. Phys. Lett. 240: 283 (1995)                
              K. Eichkorn, O. Treutler, H. Oehm, M. Haeser     
              and R. Ahlrichs                                  
              Chem. Phys. Lett. 242: 652 (1995)                
                                                           
              Auxiliary Basis Sets for Main Row Atoms and their
              Use to approximate Coulomb Potentials            
              K. Eichkorn, F. Weigend, O. Treutler and         
              R. Ahlrichs                                      
              Theo. Chem. Acc. 97: 119 (1997)                   
                                                           
              Accurate Coulomb-fitting basis sets for H to Rn 
              F. Weigend                                        
              Phys. Chem. Chem. Phys. 8: 1057 (2006)            
                                                           
          Multipole accelerated RI-J (MARI-J):             
              Fast evaluation of the Coulomb potential for     
              electron densities using multipole accelerated   
              resolution of identity approximation             
              M. Sierka, A. Hogekamp and R. Ahlrichs           
              J. Chem. Phys. 118: 9136 (2003)                  
          RI-JK Method:                                     
              A fully direct RI-HF algorithm: Implementation,
              optimised auxiliary basis sets, demonstration of
              accuracy and efficiency                         
              F. Weigend                                      
              Phys. Chem. Chem. Phys. 4: 4285 (2002)           
          Two-component HF and DFT with spin-orbit coupling:  
              Self-consistent treatment of spin-orbit         
              interactions with efficient Hartree-Fock and    
              density functional methods                      
              M. K. Armbruster, F. Weigend, C. van Wüllen and 
              W. Klopper                                      
              Phys. Chem. Chem. Phys. 10: 1748 (2008)         
          Relativistic all-electron 2c calculations           
              An efficient implementation of two-component    
              relativistic exact-decoupling methods for large 
              molecules                                       
              D. Peng, N. Middendorf, F. Weigend, M. Reiher   
              J. Chem. Phys. 138, 184105 (2013)               
                                         


 


              +--------------------------------------------------+
              |      general information about current run       |
              +--------------------------------------------------+

 

 SCF run will be profiled !


 DENSITY CONVERGENCE CHECK SWITCHED ON !
 SCF CONVERGENCE IF RMS(delta[D]) <     0.1000000000E-06

 TPSS meta-GGA functional
 exchange:    LDA + TPSS
 correlation: LDA (PW) + TPSS
 A DFT calculation using the RI-J approximation will be carried out.
 Allocatable memory for RI due to $ricore (MB):        5000


              +--------------------------------------------------+
              | Atomic coordinate, charge and isotop information |
              +--------------------------------------------------+

                    atomic coordinates            atom    charge  isotop
          5.86996452   -0.78810254   -4.59530630    c      6.000     0
          7.20248184   -2.16823901   -6.37688640    c      6.000     0
          5.98856741   -4.55049025   -6.64348742    c      6.000     0
          3.94112508   -4.59330807   -5.01176180    c      6.000     0
          6.29749316    1.89636702   -3.66209586    c      6.000     0
          8.96057847    2.74243961   -4.56337073    c      6.000     0
          4.36827642    3.72189068   -4.75217594    c      6.000     0
          4.57209075    5.31103057   -6.82226676    c      6.000     0
          2.02585290   -6.66679486   -4.49609735    c      6.000     0
          2.15946136   -7.49993502   -1.68763425    c      6.000     0
          2.70692670   -8.97332811   -6.13283275    c      6.000     0
         -0.63200152   -5.82595866   -5.17165721    c      6.000     0
         -2.18946355   -6.59098894   -7.13295899    c      6.000     0
          3.89372151   -2.29167674   -3.78596449    n      7.000     0
          1.99611798    4.08040386   -3.73881470    n      7.000     0
         -1.95752617   -4.04736186   -3.79724206    n      7.000     0
         -3.88934083    4.63851548   -5.00129268    c      6.000     0
         -5.91655277    4.61016526   -6.65855596    c      6.000     0
         -7.13296347    2.22544997   -6.42853201    c      6.000     0
         -5.82189329    0.82984778   -4.64304708    c      6.000     0
         -1.98006398    6.70752328   -4.44654614    c      6.000     0
         -2.13941314    7.51253059   -1.63126705    c      6.000     0
         -2.64664291    9.03046599   -6.06599175    c      6.000     0
          0.68406046    5.87410079   -5.10627890    c      6.000     0
          2.26012976    6.65977074   -7.04443431    c      6.000     0
         -6.25980184   -1.86341403   -3.74009524    c      6.000     0
         -8.91395134   -2.69986271   -4.67609995    c      6.000     0
         -4.32008849   -3.67836241   -4.82929909    c      6.000     0
         -4.50374297   -5.24516385   -6.91821726    c      6.000     0
         -3.85582792    2.32586336   -3.79585483    n      7.000     0
          6.35509136    2.00987676   -0.79159774    c      6.000     0
          6.38393198    4.08213529    0.86217415    c      6.000     0
          6.84371750   -0.10058737    0.59846547    n      7.000     0
          6.93232982    3.14682126    3.31610643    c      6.000     0
          7.19371221    0.51967002    3.11306771    c      6.000     0
         -6.34652617   -2.00485465   -0.87169613    c      6.000     0
         -6.38973230   -4.09282910    0.76212349    c      6.000     0
         -6.85265460    0.09156322    0.53309720    n      7.000     0
         -6.96503741   -3.18148679    3.21880792    c      6.000     0
         -7.22828846   -0.55280643    3.03790760    c      6.000     0
          7.68599877   -1.36851565    5.01392803    c      6.000     0
         -7.74236889    1.31659318    4.95135086    c      6.000     0
          8.11603216   -1.00663997    7.25803698    o      8.000     0
         -8.19529203    0.93272071    7.18737116    o      8.000     0
          7.60789561   -3.76714504    3.97962708    o      8.000     0
         -7.65577469    3.72515327    3.94087855    o      8.000     0
         -8.03113817    5.75204028    5.73199356    c      6.000     0
          7.96242576   -5.81101951    5.75563576    c      6.000     0
         -7.30477860    8.19128579    4.41152112    c      6.000     0
          7.26184325   -8.23856142    4.40014961    c      6.000     0
         -7.19025594   -4.74458232    5.57157871    c      6.000     0
          7.13650369    4.68787794    5.68523712    c      6.000     0
          4.58600594    4.96070010    7.05613622    c      6.000     0
         -4.65394389   -5.02033524    6.96816596    c      6.000     0
         -5.92955308   -6.80699185    0.07893159    c      6.000     0
          5.93519977    6.80349282    0.20035783    c      6.000     0
          8.85164949   -1.53068757   -7.39867582    h      1.000     0
          6.55187314   -6.06026124   -7.89841260    h      1.000     0
          9.33024400    4.66681301   -3.91575986    h      1.000     0
          9.08001401    2.69659664   -6.62586834    h      1.000     0
         10.38969694    1.47242859   -3.78198419    h      1.000     0
          6.19978605    5.48822786   -8.04280279    h      1.000     0
          0.81560353   -9.04169106   -1.35719599    h      1.000     0
          1.71346587   -5.94894509   -0.40214217    h      1.000     0
          4.07120818   -8.17551841   -1.26458685    h      1.000     0
          2.67645418   -8.50587216   -8.14630039    h      1.000     0
          1.35288832  -10.49750305   -5.78774845    h      1.000     0
          4.60183273   -9.64301516   -5.64361998    h      1.000     0
         -1.71878451   -7.96606601   -8.56799749    h      1.000     0
          2.63838462   -1.84919387   -2.35954216    h      1.000     0
          1.29777653    3.19725815   -2.15368887    h      1.000     0
         -1.27563756   -3.18166148   -2.19525633    h      1.000     0
         -6.46427657    6.13091228   -7.90711540    h      1.000     0
         -8.76909980    1.59680151   -7.47645653    h      1.000     0
         -0.79918711    9.05132970   -1.27338991    h      1.000     0
         -1.70456878    5.94891166   -0.35731597    h      1.000     0
         -4.05515665    8.18337265   -1.21885510    h      1.000     0
         -2.59640498    8.58385089   -8.08380624    h      1.000     0
         -1.29680225   10.55162429   -5.69223925    h      1.000     0
         -4.54656696    9.69416258   -5.58824271    h      1.000     0
          1.80334213    8.05048751   -8.46884668    h      1.000     0
         -9.01288940   -2.63374126   -6.73913336    h      1.000     0
        -10.35040755   -1.43702280   -3.89654904    h      1.000     0
         -9.29055764   -4.63039482   -4.05120677    h      1.000     0
         -6.11969780   -5.40935952   -8.15603778    h      1.000     0
         -2.62015145    1.87042764   -2.35441224    h      1.000     0
          6.84377010   -1.88219370   -0.09515548    h      1.000     0
         -6.84897285    1.87950696   -0.14406925    h      1.000     0
         -6.86521845    5.38824141    7.40049927    h      1.000     0
        -10.01364555    5.75205802    6.33445922    h      1.000     0
          6.77101750   -5.46722414    7.41039772    h      1.000     0
          9.93573669   -5.81206673    6.38738499    h      1.000     0
         -5.31972216    8.14749809    3.83698402    h      1.000     0
         -7.58507625    9.79281031    5.69432847    h      1.000     0
         -8.46300115    8.49183526    2.72446370    h      1.000     0
          5.28546094   -8.19369293    3.79660748    h      1.000     0
          7.52704132   -9.85219789    5.67092503    h      1.000     0
          8.44584728   -8.51936469    2.72766080    h      1.000     0
         -7.90263773   -6.62539870    5.06055604    h      1.000     0
         -8.56688742   -3.87197527    6.84321450    h      1.000     0
          7.86134460    6.57057591    5.19899115    h      1.000     0
          8.49578883    3.79896247    6.96424046    h      1.000     0
          3.16091814    5.80012632    5.81408160    h      1.000     0
          4.77992924    6.15874131    8.73649835    h      1.000     0
          3.89335542    3.10974255    7.65139193    h      1.000     0
         -3.21203059   -5.84250685    5.73399798    h      1.000     0
         -4.86155366   -6.23481190    8.63502603    h      1.000     0
         -3.97505580   -3.17238356    7.58817529    h      1.000     0
         -6.03297554   -7.10472402   -1.96163377    h      1.000     0
         -7.31650740   -8.04446925    0.99699119    h      1.000     0
         -4.04745501   -7.42383875    0.69182890    h      1.000     0
          6.05165976    7.11906884   -1.83677978    h      1.000     0
          7.32003978    8.02906108    1.13752323    h      1.000     0
          4.05123182    7.41991947    0.80779657    h      1.000     0
          1.35323061   -1.83487764    8.35180463    c      6.000     0
          1.33432773   -1.84971329    5.72023982    c      6.000     0
         -0.05038535   -0.03022455    9.66981846    c      6.000     0
         -0.02339181   -0.01634270    4.38825803    c      6.000     0
         -1.44026825    1.78151055    8.34706624    c      6.000     0
         -1.39448303    1.81020133    5.71590596    c      6.000     0
         -0.01002541   -0.00957737    1.54688684    c      6.000     0
         -0.71244440    1.99678102    0.43861828    o      8.000     0
          0.70197594   -2.01005326    0.43554592    o      8.000     0
          2.45749504   -3.22647612    9.38068689    h      1.000     0
          2.37404005   -3.25582621    4.65113501    h      1.000     0
         -0.06095465   -0.03560796   11.72386454    h      1.000     0
         -2.55457623    3.16809886    9.37191360    h      1.000     0
         -2.42389050    3.22158305    4.64376839    h      1.000     0
 
       center of nuclear mass  :    0.00004784    0.00010488   -0.08608047
       center of nuclear charge:   -0.00000084    0.00004910   -0.06660081

              +--------------------------------------------------+
              |               basis set information              |
              +--------------------------------------------------+

              we will work with the 1s 3p 5d 7f 9g ... basis set
              ...i.e. with spherical basis functions...

   type   atoms  prim   cont   basis
   ---------------------------------------------------------------------------
    c       53     50     30   cc-pVTZ   [4s3p2d1f|18s5p2d1f]
    n        6     50     30   cc-pVTZ   [4s3p2d1f|18s5p2d1f]
    o        6     50     30   cc-pVTZ   [4s3p2d1f|18s5p2d1f]
    h       63     16     14   cc-pVTZ   [3s2p1d|5s2p1d]
   ---------------------------------------------------------------------------
   total:  128   4258   2832
   ---------------------------------------------------------------------------

   total number of primitive shells          :   86
   total number of contracted shells         : 1028
   total number of cartesian basis functions : 3220
   total number of SCF-basis functions       : 2832


 integral neglect threshold       :  0.10E-13
 integral storage threshold THIZE :  0.10E-04
 integral storage threshold THIME :         5

 RI-J AUXILIARY BASIS SET information:

              we will work with the 1s 3p 5d 7f 9g ... basis set
              ...i.e. with spherical basis functions...

   type   atoms  prim   cont   basis
   ---------------------------------------------------------------------------
    c       53     70     49   cc-pVTZ   [6s4p3d1f1g|12s5p4d2f1g]
    n        6     70     49   cc-pVTZ   [6s4p3d1f1g|12s5p4d2f1g]
    o        6     70     49   cc-pVTZ   [6s4p3d1f1g|12s5p4d2f1g]
    h       63     16     11   cc-pVTZ   [3s1p1d|5s2p1d]
   ---------------------------------------------------------------------------
   total:  128   5558   3878
   ---------------------------------------------------------------------------

   total number of primitive shells          :   80
   total number of contracted shells         : 1290
   total number of cartesian basis functions : 4721
   total number of SCF-basis functions       : 3878


 symmetry group of the molecule :   c1 

 the group has the following generators :
   c1(z)

    1 symmetry operations found

 there are 1 real representations :   a   

 maximum number of shells which are related by symmetry :  1


    mo occupation :
   irrep   mo's   occupied
    a     2832      236
 
 number of basis functions   :         2832
 number of occupied orbitals :          236
 
  
           ------------------
           density functional
           ------------------
 TPSS meta-GGA functional
 exchange:    LDA + TPSS
 correlation: LDA (PW) + TPSS
 grinp -> nfun, dfgga, dfhybrid 
           5 F F
 iterations will be done with small grid
  
 spherical integration : Lebedev's spherical grid
 spherical gridsize    :           5
    i.e. gridpoints    :         590
 value for diffuse not defined
 radial integration    : Chebyshev 2nd kind (scaling 3)
 radial gridsize       :           8
 integration cells     :         128
 partition function    : becke
 partition sharpness   :           3
  

 <rddim> : input of entry tasksize
           from data group '$pardft' failed !

               Default values taken

 <rddim> : input of entry memdiv
           from data group '$pardft' failed !

               Default values taken
  RIDFT: memory allocation for DFT gridpoints
  MEMORY is divided by 1 as DEFAULT
 Each node can hold at most  the            1 -th part
 of the gridpoints    

 biggest AO integral is expected to be     4.866064444
  
           ------------------------
               RI-J - INFORMATION
           ------------------------
 
 
 **************************************************
 *      MEMORY ALLOCATION FOR PARALLEL RI-DFT     *
 **************************************************
 
 
MEMORY FOR (MU NU/ ALPHA), SEQUENTIAL RUN               4880 MByte
 
            DIFFERENCE IN MEMORY NEED:       DIAG./SLAVE  
 
      TOTAL DIFFERENCE :                    440 MByte
 
      difference in xcore:                  121 MByte
      difference in fatmat:                 118 MByte
      getcor calls skipped by slaves:       202 MByte
 
 
           Integral memory available for diagonal.      4880 MByte
 
           Integral memory available for slave             0 MByte
 
         MEMORY FOR (MU NU/ ALPHA) ON DIAGONALIZER      4880 MByte
 
         MEMORY FOR (MU NU/ ALPHA) ON ONE SLAVE            0 MByte
 
         TOTAL MEMORY FOR (MU NU/ ALPHA),ALL NODES      4880 MByte
 
 Contributions to RI integral batches: 
  neglected integral batches:      305349
  direct contribution:             173483
  memory contribution:       50074
 Memory core needed for (P|Q) and Cholesky    115 MByte
 Memory core minimum needed except of (P|Q)     7 MByte
 Total minimum memory core needed (sum)       122 MByte
     number of direct tasks:         160
  
 ****************************************
 Memory allocated for RI-J  5001 MByte
 ****************************************
                                            

          ------------------------
          nuclear repulsion energy  :   11366.5441077    
          ------------------------

 
          -----------------
          -S integrals
          -----------------

 1e-integrals will be neglected if expon. factor < 0.103788E-14
 
          -----------------
          -T+V integrals
          -----------------

 1e-integrals will be neglected if expon. factor < 0.103788E-14
 Difference densities >>NOT<< switched on in parallel ridft!

 automatic virtual orbital shift switched on 
      shift if e(lumo)-e(homo) < 0.10000000    


 DIIS switched on: error vector is FDS-SDF
 Max. Iterations for DIIS is     :   4
 DIIS matrix (see manual) 
    Scaling factor of diagonals  :  1.200
    threshold for scaling factor :  0.000

 scf convergence criterion : increment of total energy < .1000000D-08
                  and increment of one-electron energy < .1000000D-05


 <geterg> : there is no data group $energy 

  MOs are in ASCII format !


 reading orbital data $scfmo  from file mos . 

 orbital characterization : expanded
 
 mo provided and orthogonalized by Cholesky decomposition

 DSCF restart information will be dumped onto file mos


 Starting SCF iterations


 ITERATION  ENERGY          1e-ENERGY        2e-ENERGY     RMS[dD(SAO)]   TOL
   1  -2829.5919630834    -26462.042327     12265.906256    0.000D+00 0.104D-13
                            Exc = -398.823291267     Coul =  12664.7295476    
                              N = 472.00287298    
                            current damping = 0.700
 
          max. resid. norm for Fia-block=  3.598D-01 for orbital    144a         
          max. resid. fock norm         =  4.129D+00 for orbital   2571a         

 ITERATION  ENERGY          1e-ENERGY        2e-ENERGY     RMS[dD(SAO)]   TOL
   2  -2837.1095892219    -26527.564987     12323.911290    0.166D-02 0.104D-13
                            Exc = -402.427014329     Coul =  12726.3383045    
                              N = 472.00228615    
                            current damping = 0.650
 
          Norm of current diis error:  6.5975    
          max. resid. norm for Fia-block=  1.599D-01 for orbital      5a         
          max. resid. fock norm         =  4.100D-01 for orbital   2777a         

 ITERATION  ENERGY          1e-ENERGY        2e-ENERGY     RMS[dD(SAO)]   TOL
   3  -2838.4981305797    -26544.687120     12339.644881    0.912D-03 0.104D-13
                            Exc = -404.622404372     Coul =  12744.2672856    
                              N = 472.00198005    
                            current damping = 0.550
 
          Norm of current diis error:  3.3211    
          max. resid. norm for Fia-block=  6.184D-02 for orbital      5a         
          max. resid. fock norm         =  6.572D-02 for orbital     76a         

 ITERATION  ENERGY          1e-ENERGY        2e-ENERGY     RMS[dD(SAO)]   TOL
   4  -2838.9619690232    -26553.465697     12347.959620    0.653D-03 0.104D-13
                            Exc = -404.942136488     Coul =  12752.9017565    
                              N = 472.00181804    
                            current damping = 0.450
 
          Norm of current diis error:  1.3609    
          max. resid. norm for Fia-block=  4.385D-02 for orbital     68a         
          max. resid. fock norm         =  7.992D-02 for orbital   2716a         

 ITERATION  ENERGY          1e-ENERGY        2e-ENERGY     RMS[dD(SAO)]   TOL
   5  -2839.0275806982    -26557.089956     12351.518268    0.298D-03 0.104D-13
                            Exc = -405.823197114     Coul =  12757.3414647    
                              N = 472.00171430    
                            current damping = 0.350
 
          Norm of current diis error: 0.81663    
          max. resid. norm for Fia-block=  2.074D-02 for orbital    219a         
          max. resid. fock norm         =  2.440D-02 for orbital    219a         
          mo-orthogonalization: Cholesky decomposition

 ITERATION  ENERGY          1e-ENERGY        2e-ENERGY     RMS[dD(SAO)]   TOL
   6  -2839.0543523975    -26561.807016     12356.208556    0.209D-03 0.104D-13
                            Exc = -405.787999593     Coul =  12761.9965551    
                              N = 472.00169239    
                            current damping = 0.250
 
          Norm of current diis error: 0.38588    
          max. resid. norm for Fia-block=  1.113D-02 for orbital    217a         
          max. resid. fock norm         =  1.965D-02 for orbital   2748a         

 ITERATION  ENERGY          1e-ENERGY        2e-ENERGY     RMS[dD(SAO)]   TOL
   7  -2839.0572138924    -26557.221877     12351.620556    0.100D-03 0.104D-13
                            Exc = -405.721754069     Coul =  12757.3423097    
                              N = 472.00168475    
                            current damping = 0.300
 
          Norm of current diis error: 0.29804    
          max. resid. norm for Fia-block=  5.069D-03 for orbital    216a         
          max. resid. fock norm         =  7.882D-03 for orbital   2778a         

 ITERATION  ENERGY          1e-ENERGY        2e-ENERGY     RMS[dD(SAO)]   TOL
   8  -2839.0607637966    -26559.640900     12354.036029    0.433D-04 0.104D-13
                            Exc = -405.793087450     Coul =  12759.8291163    
                              N = 472.00168303    
                            current damping = 0.350
 
          Norm of current diis error: 0.69539E-01
          max. resid. norm for Fia-block=  1.663D-03 for orbital    232a         
          max. resid. fock norm         =  2.970D-03 for orbital   2791a         

 ITERATION  ENERGY          1e-ENERGY        2e-ENERGY     RMS[dD(SAO)]   TOL
   9  -2839.0607296184    -26559.459102     12353.854265    0.182D-04 0.104D-13
                            Exc = -405.816310867     Coul =  12759.6705757    
                              N = 472.00167935    
                            current damping = 0.400
 
          Norm of current diis error: 0.74463E-01
          max. resid. norm for Fia-block=  7.331D-04 for orbital    232a         
          max. resid. fock norm         =  1.091D-03 for orbital   2775a         

 ITERATION  ENERGY          1e-ENERGY        2e-ENERGY     RMS[dD(SAO)]   TOL
  10  -2839.0609238336    -26559.661693     12354.056662    0.805D-05 0.104D-13
                            Exc = -405.808545114     Coul =  12759.8652067    
                              N = 472.00167959    
                            current damping = 0.450
 
          Norm of current diis error: 0.26308E-01
          max. resid. norm for Fia-block=  2.955D-04 for orbital    226a         
          max. resid. fock norm         =  6.188D-04 for orbital   2791a         
          mo-orthogonalization: Cholesky decomposition

 ITERATION  ENERGY          1e-ENERGY        2e-ENERGY     RMS[dD(SAO)]   TOL
  11  -2839.0609483278    -26559.607066     12354.002010    0.338D-05 0.104D-13
                            Exc = -405.804279204     Coul =  12759.8062893    
                              N = 472.00168022    
                            current damping = 0.500
 
          Norm of current diis error: 0.72252E-02
          max. resid. norm for Fia-block=  1.514D-04 for orbital    220a         
          max. resid. fock norm         =  2.373D-04 for orbital   2777a         

 ITERATION  ENERGY          1e-ENERGY        2e-ENERGY     RMS[dD(SAO)]   TOL
  12  -2839.0609493895    -26559.638034     12354.032977    0.152D-05 0.104D-13
                            Exc = -405.804372594     Coul =  12759.8373491    
                              N = 472.00168012    
                            current damping = 0.550
 
          Norm of current diis error: 0.49365E-02
          max. resid. norm for Fia-block=  8.450D-05 for orbital    220a         
          max. resid. fock norm         =  1.092D-04 for orbital   2716a         

 ITERATION  ENERGY          1e-ENERGY        2e-ENERGY     RMS[dD(SAO)]   TOL
  13  -2839.0609503372    -26559.636649     12354.031591    0.632D-06 0.104D-13
                            Exc = -405.803921942     Coul =  12759.8355127    
                              N = 472.00168018    
                            current damping = 0.600
 
          Norm of current diis error: 0.10539E-02
          max. resid. norm for Fia-block=  1.688D-05 for orbital    230a         
          max. resid. fock norm         =  2.695D-05 for orbital    120a         

 ITERATION  ENERGY          1e-ENERGY        2e-ENERGY     RMS[dD(SAO)]   TOL
  14  -2839.0609503726    -26559.626585     12354.021527    0.185D-06 0.104D-13
                            Exc = -405.803804008     Coul =  12759.8253314    
                              N = 472.00168016    
                            current damping = 0.450
 
          Norm of current diis error: 0.42358E-03
          max. resid. norm for Fia-block=  7.286D-06 for orbital    216a         
          max. resid. fock norm         =  1.140D-05 for orbital   2748a         

 DENSITY CONVERGED !


 ITERATION  ENERGY          1e-ENERGY        2e-ENERGY     RMS[dD(SAO)]   TOL
  15  -2839.0609503781    -26559.630188     12354.025130    0.789D-07 0.104D-13
                            Exc = -405.803897525     Coul =  12759.8290275    
                              N = 472.00168015    
                            current damping = 0.500
 
          Norm of current diis error: 0.19084E-03
          max. resid. norm for Fia-block=  3.558D-06 for orbital    221a         
          max. resid. fock norm         =  5.654D-06 for orbital   2726a         
          mo-orthogonalization: Cholesky decomposition

 DENSITY CONVERGED !


 ITERATION  ENERGY          1e-ENERGY        2e-ENERGY     RMS[dD(SAO)]   TOL
  16  -2839.0609503791    -26559.629078     12354.024020    0.372D-07 0.104D-13
                            Exc = -405.803876914     Coul =  12759.8278970    
                              N = 472.00168015    
                            current damping = 0.550
 
          Norm of current diis error: 0.95927E-04
          max. resid. norm for Fia-block=  1.238D-06 for orbital    232a         
          max. resid. fock norm         =  2.638D-06 for orbital   2791a         

 DENSITY CONVERGED !


 ITERATION  ENERGY          1e-ENERGY        2e-ENERGY     RMS[dD(SAO)]   TOL
  17  -2839.0609503794    -26559.629511     12354.024453    0.143D-07 0.104D-13
                            Exc = -405.803874015     Coul =  12759.8283270    
                              N = 472.00168015    
                            current damping = 0.600
 
          Norm of current diis error: 0.32765E-04
          max. resid. norm for Fia-block=  6.783D-07 for orbital    227a         
          max. resid. fock norm         =  1.078D-06 for orbital   2769a         

 DENSITY CONVERGED !


 ITERATION  ENERGY          1e-ENERGY        2e-ENERGY     RMS[dD(SAO)]   TOL
  18  -2839.0609503794    -26559.629431     12354.024373    0.590D-08 0.104D-13
                            Exc = -405.803875089     Coul =  12759.8282484    
                              N = 472.00168015    
                            current damping = 0.650
 
          Norm of current diis error: 0.17615E-04
          max. resid. norm for Fia-block=  2.847D-07 for orbital    216a         
          max. resid. fock norm         =  4.884D-07 for orbital   2735a         

 DENSITY CONVERGED !


 ITERATION  ENERGY          1e-ENERGY        2e-ENERGY     RMS[dD(SAO)]   TOL
  19  -2839.0609503797    -26559.629326     12354.024267    0.304D-08 0.104D-13
                            Exc = -405.803873805     Coul =  12759.8281413    
                              N = 472.00168015    
                            current damping = 0.500
 
          Norm of current diis error: 0.11073E-04
          max. resid. norm for Fia-block=  1.794D-07 for orbital    230a         
          max. resid. fock norm         =  2.960D-07 for orbital   2749a         

 DENSITY CONVERGED !


 ITERATION  ENERGY          1e-ENERGY        2e-ENERGY     RMS[dD(SAO)]   TOL
  20  -2839.0609503795    -26559.629433     12354.024375    0.222D-08 0.104D-13
                            Exc = -405.803874869     Coul =  12759.8282502    
                              N = 472.00168015    
                            current damping = 0.550
 
          Norm of current diis error: 0.69329E-05
          max. resid. norm for Fia-block=  9.336D-08 for orbital    216a         
          max. resid. fock norm         =  1.417D-07 for orbital   2748a         
          mo-orthogonalization: Cholesky decomposition

 ENERGY & DENSITY CONVERGED !


 ITERATION  ENERGY          1e-ENERGY        2e-ENERGY     RMS[dD(SAO)]   TOL
  21  -2839.0592983825    -26559.629413     12354.026007    0.848D-09 0.104D-13
                            Exc = -405.802222535     Coul =  12759.8282292    
                              N = 471.99979072    
                            current damping = 0.600
 
          Norm of current diis error: 0.22068E-05
          max. resid. norm for Fia-block=  2.843D-08 for orbital    230a         
          max. resid. fock norm         =  5.350D-08 for orbital   2823a         

 End of SCF iterations

   convergence criteria satisfied after   21 iterations


                  ------------------------------------------ 
                 |  total energy      =  -2839.05929838253  |
                  ------------------------------------------ 
                 :  kinetic energy    =   2822.68647388960  :
                 :  potential energy  =  -5661.74577227214  :
                 :  virial theorem    =      1.99423301074  :
                 :  wavefunction norm =      1.00000000000  :
                  .......................................... 


 <geterg> : there is no data group $energy 


 <skperg> : $end is missing 


 orbitals $scfmo  will be written to file mos

    irrep                232a        233a        234a        235a        236a   
 eigenvalues H         -0.10261    -0.09349    -0.08644    -0.08101    -0.06757
            eV          -2.7921     -2.5440     -2.3522     -2.2045     -1.8386
 occupation              2.0000      2.0000      2.0000      2.0000      2.0000 

    irrep                237a        238a        239a        240a        241a   
 eigenvalues H          0.02757     0.03131     0.03416     0.05541     0.07868
            eV           0.7501      0.8521      0.9297      1.5077      2.1411
 
 
 ! grave: sending quit signal to master process
 
 
 
 
 ==============================================================================
                           electrostatic moments
 ==============================================================================

 reference point for electrostatic moments:    0.00000   0.00000   0.00000

 
              nuc           elec       ->  total
 ------------------------------------------------------------------------------
                          charge      
 ------------------------------------------------------------------------------
         471.000000    -472.000000      -1.000000
 
 ------------------------------------------------------------------------------
                       dipole moment  
 ------------------------------------------------------------------------------
   x      -0.000398       0.001945       0.001547
   y       0.023124      -0.026711      -0.003587
   z     -31.368982      32.082540       0.713559
 
   | dipole moment | =     0.7136 a.u. =     1.8137 debye 
 
 ------------------------------------------------------------------------------
                     quadrupole moment
 ------------------------------------------------------------------------------
  xx   14650.268807  -14977.147143    -326.878336
  yy   10286.891412  -10587.815216    -300.923804
  zz   12148.148861  -12483.901751    -335.752890
  xy    -620.915487     612.835259      -8.080228
  xz       4.454398      -4.450700       0.003698
  yz      -7.260552       7.406310       0.145759
 
     1/3  trace=    -321.185010
     anisotropy=      34.331681
 
 ==============================================================================
 

    ridft profiling
  --------------------------------------------------------------------
             module   cpu total (s)       %  wall total (s)       %

               RIDFT          6136.3  100.00          6132.5  100.00
         Ridft_b_scf           124.2    2.02           124.1    2.02
        b_scf_prelim             0.0    0.00             0.0    0.00
        b_scf_molinp             0.0    0.00             0.0    0.00
         b_scf_init0             0.0    0.00             0.0    0.00
        b_scf_auxbas             0.0    0.00             0.0    0.00
      b_scf_symmetry             0.0    0.00             0.0    0.00
         b_scf_cosmo             0.0    0.00             0.0    0.00
        b_scf_params             3.5    0.06             3.5    0.06
          b_scf_ri-j            63.8    1.04            63.7    1.04
    b_scf_ri-j_auxpq            63.7    1.04            63.6    1.04
     ri-j_auxpq_chol             8.1    0.13             8.1    0.13
         b_scf_1elec             4.1    0.07             4.1    0.07
       b_scf_moinput            52.8    0.86            52.7    0.86
     moinput_orthmos            52.0    0.85            51.9    0.85
    b_scf_dft-dstmax             0.0    0.00             0.0    0.00
           Ridft_scf          6010.6   97.95          6006.9   97.95
          Scf_b_loop             0.0    0.00             0.0    0.00
                noga             0.0    0.00             0.0    0.00
            Scf_loop          6005.0   97.86          6001.3   97.86
     scf_loop_mkdmat            21.2    0.35            21.2    0.35
       scf_loop_ri-j           937.1   15.27           936.4   15.27
      parlp1.bc.dens             1.6    0.03             1.6    0.03
        parlp1.gs.gp            10.2    0.17            10.2    0.17
        parlp2.bc.gq             0.0    0.00             0.0    0.00
        scf_loop_dft          4320.7   70.41          4317.5   70.40
      pardft.bc.dens             0.0    0.00             0.0    0.00
        dft_grid_con            10.3    0.17            10.3    0.17
          dft_xcmrhf          4256.7   69.37          4253.5   69.36
          dft_getval            79.9    1.30            80.0    1.30
          funct2 dst             1.7    0.03             1.8    0.03
      funct2 f2loop1            10.7    0.17            10.7    0.17
      funct2 f2loop2            41.5    0.68            41.4    0.68
          funct2 s+c            24.6    0.40            24.6    0.40
        funct2 cmf_2            22.3    0.36            22.2    0.36
          dft_mkdens          2114.6   34.46          2112.9   34.45
        dft_mgga-fun             2.6    0.04             2.7    0.04
          dft_mkfock          2058.1   33.54          2056.6   33.54
     pardft.red.fock           354.2    5.77           354.0    5.77
     scf_loop_energy             0.1    0.00             0.1    0.00
     scf_loop_mkfock             0.2    0.00             0.2    0.00
       scf_loop_diis           362.4    5.91           362.1    5.90
       scf_loop_diag           196.8    3.21           196.7    3.21
         diag_tritrn            64.9    1.06            64.9    1.06
          diag_rdiag           131.4    2.14           131.3    2.14
     scf_loop_modump           100.0    1.63           100.7    1.64
      scf_loop_ortho            63.0    1.03            62.9    1.03
          Scf_a_loop             5.6    0.09             5.6    0.09
         Ridft_a_scf             1.5    0.03             1.6    0.03
         a_scf_fanal             1.5    0.02             1.5    0.02
 


    ------------------------------------------------------------------------
         total  cpu-time :  1 hours 42 minutes and 23 seconds
         total wall-time :  1 hours 42 minutes and 20 seconds
    ------------------------------------------------------------------------


   ****  ridft : all done  ****


    2017-11-13 12:56:01.213 

