
   OpenMP run-time library returned nthreads =  8

 ricc2 (c-16-18.local) : TURBOMOLE V7.2 ( 21471 ) 11 Oct 2017 at 17:04:51
 Copyright (C) 2017 TURBOMOLE GmbH, Karlsruhe


    2018-04-03 13:44:41.139 



                              R I C C 2 - PROGRAM

                          the quantum chemistry groups
                             at the universities in
                           Karlsruhe, Bochum & Mainz
                                   Germany



   *-----------------------------------------------------------------------*
   |                     program will use  8 thread(s)                     |
   *-----------------------------------------------------------------------*


              +--------------------------------------------------+
              | Atomic coordinate, charge and isotop information |
              +--------------------------------------------------+

                    atomic coordinates            atom    charge  isotop
         -1.19191125    1.02087313    3.02500067    c      6.000     0
         -2.70678920    0.72622594   -1.71674599    c      6.000     0
          3.15950847    1.15605387   -0.72468892    c      6.000     0
          2.93108524   -1.04344044    1.18199619    c      6.000     0
         -0.65474754   -0.66754048   -3.23841440    c      6.000     0
          1.97554083    0.56485459   -3.31214416    c      6.000     0
         -3.08566147   -0.02009191    1.08697650    c      6.000     0
          1.26806736   -0.45788075    3.49443778    c      6.000     0
         -3.17698016   -2.72629227    1.42000090    o      8.000     0
         -4.51628313   -3.37698926    0.34980157    h      1.000     0
         -4.93670082    0.77325350    1.61699735    h      1.000     0
          2.16188912   -2.70860752    0.22515893    h      1.000     0
          2.26333914    2.85240417    0.05837381    h      1.000     0
         -0.51755055   -2.60343502   -2.51527097    h      1.000     0
         -2.17313773    1.13151620    4.84749381    h      1.000     0
         -0.77113844    2.97859526    2.48829926    h      1.000     0
          0.79690876   -2.23915562    4.43619138    h      1.000     0
         -4.53022769    0.37308240   -2.64735077    h      1.000     0
         -1.30609128   -0.84183599   -5.19849395    h      1.000     0
          2.36918076    0.65773549    4.85598808    h      1.000     0
          3.23695461   -0.71363744   -4.35346717    h      1.000     0
         -2.42444446    2.78208396   -1.80467239    h      1.000     0
          4.80765116   -1.59555898    1.86283469    h      1.000     0
          5.14682870    1.66189074   -1.01519589    h      1.000     0
          1.87470954    2.31589642   -4.42310632    h      1.000     0
 
       center of nuclear mass  :   -0.22599396   -0.20900148    0.14856003
       center of nuclear charge:   -0.19115832   -0.17623300    0.12391798

              +--------------------------------------------------+
              |               basis set information              |
              +--------------------------------------------------+

              we will work with the 1s 3p 5d 7f 9g ... basis set
              ...i.e. with spherical basis functions...

   type   atoms  prim   cont   basis
   ---------------------------------------------------------------------------
    c        8     77     55   cc-pVQZ   [5s4p3d2f1g|21s6p3d2f1g]
    o        1     77     55   cc-pVQZ   [5s4p3d2f1g|21s6p3d2f1g]
    h       16     32     30   cc-pVQZ   [4s3p2d1f|6s3p2d1f]
   ---------------------------------------------------------------------------
   total:   25   1205    975
   ---------------------------------------------------------------------------

   total number of primitive shells          :   78
   total number of contracted shells         :  295
   total number of cartesian basis functions : 1190
   total number of SCF-basis functions       :  975


 symmetry group of the molecule :   c1 

 the group has the following generators :
   c1(z)

    1 symmetry operations found

 there are 1 real representations :   a   


   =========================================================================


     restricted closed shell calculation for the wavefunction models:
               MP2        - Second Order Moeller Plesset PT


     global parameters for ricc2 program:

        hard restart (reuse of interm.) :  disabled
        soft restart (reuse of vectors) :  disabled
        threshold for vector function   :    0.100000E-05
        convergence threshold energy    :    0.100000E-06
        linear dependence threshold     :    0.100000E-13
        global print level              :      1
        maximum number of iterations    :   300
        maximum number DIIS vectors     :    10
        max. dim. of reduced space      :   100
        core memory limit (MB)          : 15258


     MP2 energy only: Energy will be calculated directly from T2 amplitudes!

     Scratch Directory : 


   =========================================================================

    der. integral neglect threshold  :  0.10E-07
    integral neglect threshold       :  0.28E-11
    integral storage threshold THIZE :  0.10E-04
    integral storage threshold THIME :         5


                  +------------------------------------------+
                  |     Auxiliary basis set information      |
                  +------------------------------------------+

              we will work with the 1s 3p 5d 7f 9g ... basis set
              ...i.e. with spherical basis functions...

   type   atoms  prim   cont   basis
   ---------------------------------------------------------------------------
    c        8    132    132   cc-pVQZ   [8s7p6d5f3g1h|8s7p6d5f3g1h]
    o        1    132    132   cc-pVQZ   [8s7p6d5f3g1h|8s7p6d5f3g1h]
    h       16     55     55   cc-pVQZ   [5s4p3d2f1g|5s4p3d2f1g]
   ---------------------------------------------------------------------------
   total:   25   2068   2068
   ---------------------------------------------------------------------------

   total number of primitive shells          :   75
   total number of contracted shells         :  510
   total number of cartesian basis functions : 2749
   total number of SCF-basis functions       : 2068


 maximum number of shells which are related by symmetry :  1


 The symmetry information takes   1 MB

*---------------------------------------------------------------------*
|               simplified C1 algorithm will be applied               |
*---------------------------------------------------------------------*
  MOs are in ASCII format !


 reading orbital data $scfmo  from file mos
 orbital characterization : scfconv=9



              +--------------------------------------------+
              | list of orbitals that will be kept frozen: |
              +--------------------------------------------+
              |   irrep   index      energy     occ/vir    |
              +--------------------------------------------+
              |   a         1      -20.5499     occupied   |
              |   a         2      -11.2772     occupied   |
              |   a         3      -11.2205     occupied   |
              |   a         4      -11.2134     occupied   |
              |   a         5      -11.2131     occupied   |
              |   a         6      -11.2124     occupied   |
              |   a         7      -11.2088     occupied   |
              |   a         8      -11.2082     occupied   |
              |   a         9      -11.2047     occupied   |
              +--------------------------------------------+



   Molecular Orbital Statistic:
   ============================

   -----------------------------
   orbitals in total:
   -----------------------------
    frozen occupied :      9
    active occupied :     27
    active virtual  :    939
    frozen virtual  :      0
    all together    :    975
   -----------------------------


     time in riccmos       cpu:  5.27 sec    wall:  1.37 sec    ratio:  3.8

     total memory allocated for calculation of (Q|P)**(-1/2) : 49 MiB


     calculation of (P|Q) ...
     time in lp2sym        cpu:  1.24 sec    wall:  0.15 sec    ratio:  8.0


     calculation of the Cholesky decomposition of (P|Q)**(-1) ...
     time in invmetri      cpu:  4.42 sec    wall:  0.62 sec    ratio:  7.1

   threshold for RMS(d[D]) in SCF was     :  0.10E-06
   integral neglect threshold             :  0.28E-11
   derivative integral neglect threshold  :  0.10E-07


   =========================================================================

     Energy of reference wave function is  -387.2650998121000
     Maximum orbital residual is           0.2220985564703E-05


     Number of symmetry-nonredundant auxiliary basis functions:     2068

     Block lengths for integral files:
        frozen occupied (BOI):        1 MiB
        active occupied (BJI):        1 MiB
        active virtual  (BAI):       15 MiB
        frozen virtual  (BGI):        0 MiB
               general  (BTI):       16 MiB

   =========================================================================




   **************************************************************************
   *                                                                        *
   *          OPTIMIZATION OF THE GROUND STATE CLUSTER AMPLITUDES           *
   *                                                                        *
   **************************************************************************


   Iter.   MP2 energy       Norm(Omega)    Norm(t1)  Norm(t2)     cpu    wall
   ...........................................................................
    1   -389.0036065167     ------          0.00000   0.43284    2.50    0.31
   ...........................................................................


     time in total         cpu:  2 min 30 s  wall:  0 min 19 s  ratio:  8.0


     **********************************************************************
     *                                                                    *
     *   RHF  energy                             :   -387.2650998121      *
     *   MP2 correlation energy (doubles)        :     -1.7385067046      *
     *                                                                    *
     *   Final MP2 energy                        :   -389.0036065167      *
     *                                                                    *
     *    E(S)   =     -1.1468564138      E(T)   =     -0.5916502908      *
     *    E(OS)  =     -1.3440731774      E(SS)  =     -0.3944335272      *
     *                                                                    *
     *   SCS-MP2 energy                          :   -389.0094654674      *
     *   (computed with  C(OS) =   1.2000  and  C(SS) =   0.3333)         *
     *                                                                    *
     *   SOS-MP2 energy                          :   -389.0123949427      *
     *   (computed with  C(OS) =   1.3000)                                *
     *                                                                    *
     *   Norm of MP1 T2 amplitudes               :      0.4328370748      *
     *                                                                    *
     **********************************************************************



    ------------------------------------------------------------------------
         total  cpu-time :  4 minutes and 58 seconds
         total wall-time :  39.05 seconds
    ------------------------------------------------------------------------

   ****  ricc2 : all done  ****


    2018-04-03 13:45:20.109 

