
 eiger (gplogin2.gp.local) : TURBOMOLE V7.3 ( 22118 ) 1 Jul 2018 at 20:38:15
 Copyright (C) 2018 TURBOMOLE GmbH, Karlsruhe


    2019-05-14 12:32:25.029 

                                                                                
  
Total energy =   -342.3807861001 H =     -9316.6605229 eV
 
 HOMO-LUMO Separation
   HOMO:    29.    29 a     -0.37825321 H =    -10.29280 eV
   LUMO:    30.    30 a     +0.09937004 H =     +2.70400 eV
   Gap :                    +0.47762325 H =    +12.99680 eV
 
Number of MOs=    745, Electrons=     58.00, Symmetry: c1   
 
   Nr.   Orbital    Occupation       Energy
   46.    46 a                     +0.297297 H =        +8.090 eV
   45.    45 a                     +0.284821 H =        +7.750 eV
   44.    44 a                     +0.260006 H =        +7.075 eV
   43.    43 a                     +0.249925 H =        +6.801 eV
   42.    42 a                     +0.242008 H =        +6.585 eV
   41.    41 a                     +0.229525 H =        +6.246 eV
   40.    40 a                     +0.222794 H =        +6.063 eV
   39.    39 a                     +0.214031 H =        +5.824 eV
   38.    38 a                     +0.195722 H =        +5.326 eV
   37.    37 a                     +0.187531 H =        +5.103 eV
   36.    36 a                     +0.183641 H =        +4.997 eV
   35.    35 a                     +0.173051 H =        +4.709 eV
   34.    34 a                     +0.159620 H =        +4.343 eV
   33.    33 a                     +0.154018 H =        +4.191 eV
   32.    32 a                     +0.130627 H =        +3.555 eV
   31.    31 a                     +0.127631 H =        +3.473 eV
   30.    30 a                     +0.099370 H =        +2.704 eV
   29.    29 a        2.000        -0.378253 H =       -10.293 eV
   28.    28 a        2.000        -0.395522 H =       -10.763 eV
   27.    27 a        2.000        -0.423628 H =       -11.528 eV
   26.    26 a        2.000        -0.501508 H =       -13.647 eV
   25.    25 a        2.000        -0.503716 H =       -13.707 eV
   24.    24 a        2.000        -0.538955 H =       -14.666 eV
   23.    23 a        2.000        -0.546796 H =       -14.879 eV
   22.    22 a        2.000        -0.556297 H =       -15.138 eV
   21.    21 a        2.000        -0.579477 H =       -15.768 eV
   20.    20 a        2.000        -0.580405 H =       -15.794 eV
   19.    19 a        2.000        -0.591833 H =       -16.105 eV
   18.    18 a        2.000        -0.628792 H =       -17.110 eV
   17.    17 a        2.000        -0.653703 H =       -17.788 eV
   16.    16 a        2.000        -0.655961 H =       -17.850 eV
   15.    15 a        2.000        -0.689003 H =       -18.749 eV
   14.    14 a        2.000        -0.792035 H =       -21.552 eV


    ------------------------------------------------------------------------
         total  cpu-time :   0.28 seconds
         total wall-time :   0.29 seconds
    ------------------------------------------------------------------------

   ****  eiger : all done  ****


    2019-05-14 12:32:25.304 

