           Doing BLAS/Lapack in the master proc. with  8 CPUs.
           SMPCPUS    set: Shared-memory Parallelization with   8 CPUs.

           SMP Parallelization Reference:
           C. van Wullen, J. Comput. Chem. 32 (2011) 1195--1201
 operating system is UNIX !

 ridft (c-12-22.gp.local) : TURBOMOLE V7.2 ( 21454 ) 4 Oct 2017 at 12:48:15
 Copyright (C) 2017 TURBOMOLE GmbH, Karlsruhe


    2018-04-28 20:57:12.925 



                                  r i d f t

                        DFT program with RI approximation 
                                for coulomb part 




                                                 
                                 References:     
                                                 
          TURBOMOLE:                             
              R. Ahlrichs, M. Baer, M. Haeser, H. Horn, and
              C. Koelmel
              Electronic structure calculations on workstation
              computers: the program system TURBOMOLE
              Chem. Phys. Lett. 162: 165 (1989)
          Density Functional:                              
              O. Treutler and R. Ahlrichs                      
              Efficient Molecular Numerical Integration Schemes
              J. Chem. Phys. 102: 346 (1995)                   
          Parallel Version:                                
              Performance of parallel TURBOMOLE for Density    
              Functional Calculations                          
              M. v. Arnim and R. Ahlrichs                      
              J. Comp. Chem. 19: 1746 (1998)                   
          RI-J Method:                                     
              Auxiliary Basis Sets to approximate Coulomb      
              Potentials                                       
              Chem. Phys. Lett. 240: 283 (1995)                
              K. Eichkorn, O. Treutler, H. Oehm, M. Haeser     
              and R. Ahlrichs                                  
              Chem. Phys. Lett. 242: 652 (1995)                
                                                           
              Auxiliary Basis Sets for Main Row Atoms and their
              Use to approximate Coulomb Potentials            
              K. Eichkorn, F. Weigend, O. Treutler and         
              R. Ahlrichs                                      
              Theo. Chem. Acc. 97: 119 (1997)                   
                                                           
              Accurate Coulomb-fitting basis sets for H to Rn 
              F. Weigend                                        
              Phys. Chem. Chem. Phys. 8: 1057 (2006)            
                                                           
          Multipole accelerated RI-J (MARI-J):             
              Fast evaluation of the Coulomb potential for     
              electron densities using multipole accelerated   
              resolution of identity approximation             
              M. Sierka, A. Hogekamp and R. Ahlrichs           
              J. Chem. Phys. 118: 9136 (2003)                  
          RI-JK Method:                                     
              A fully direct RI-HF algorithm: Implementation,
              optimised auxiliary basis sets, demonstration of
              accuracy and efficiency                         
              F. Weigend                                      
              Phys. Chem. Chem. Phys. 4: 4285 (2002)           
          Two-component HF and DFT with spin-orbit coupling:  
              Self-consistent treatment of spin-orbit         
              interactions with efficient Hartree-Fock and    
              density functional methods                      
              M. K. Armbruster, F. Weigend, C. van Wüllen and 
              W. Klopper                                      
              Phys. Chem. Chem. Phys. 10: 1748 (2008)         
          Relativistic all-electron 2c calculations           
              An efficient implementation of two-component    
              relativistic exact-decoupling methods for large 
              molecules                                       
              D. Peng, N. Middendorf, F. Weigend, M. Reiher   
              J. Chem. Phys. 138, 184105 (2013)               
                                         




              +--------------------------------------------------+
              |      general information about current run       |
              +--------------------------------------------------+

 

 DENSITY CONVERGENCE CHECK SWITCHED ON !
 SCF CONVERGENCE IF RMS(delta[D]) <     0.1000000000E-06

 PBE functional
 exchange:    LDA + PBE
 correlation: LDA (PW) + PBE
 A DFT calculation using the RI-J approximation will be carried out.
 Allocatable memory for RI due to $ricore (MB):                  5000


              +--------------------------------------------------+
              | Atomic coordinate, charge and isotop information |
              +--------------------------------------------------+

                    atomic coordinates            atom    charge  isotop
          1.37796688    2.10345646    0.61742692    c      6.000     0
          2.46272114    3.80632859    0.30076932    h      1.000     0
          2.59853854   -0.22556971    0.78003538    c      6.000     0
          4.63080174   -0.32999153    0.59206481    h      1.000     0
          1.20005132   -2.41989520    1.18936606    c      6.000     0
          2.14736096   -4.22546064    1.32321866    h      1.000     0
         -1.41915717   -2.28591533    1.43220518    c      6.000     0
         -2.50299120   -3.98999200    1.74648284    h      1.000     0
         -2.64001247    0.04284163    1.27195507    c      6.000     0
         -4.67220683    0.14832132    1.46264423    h      1.000     0
         -1.24135602    2.23799551    0.86613440    c      6.000     0
         -2.18797867    4.04512344    0.74662339    h      1.000     0
 
       center of nuclear mass  :   -0.02063986   -0.09116284    1.02637660
       center of nuclear charge:   -0.02062158   -0.09114740    1.02653670

              +--------------------------------------------------+
              |               basis set information              |
              +--------------------------------------------------+

              we will work with the 1s 3p 5d 7f 9g ... basis set
              ...i.e. with spherical basis functions...

   type   atoms  prim   cont   basis
   ---------------------------------------------------------------------------
    c        6     50     30   cc-pVTZ   [4s3p2d1f|18s5p2d1f]
    h        6     16     14   cc-pVTZ   [3s2p1d|5s2p1d]
   ---------------------------------------------------------------------------
   total:   12    396    264
   ---------------------------------------------------------------------------

   total number of primitive shells          :   34
   total number of contracted shells         :   96
   total number of cartesian basis functions :  300
   total number of SCF-basis functions       :  264


 integral neglect threshold       :  0.11E-12
 integral storage threshold THIZE :  0.10E-04
 integral storage threshold THIME :         5

 RI-J AUXILIARY BASIS SET information:

              we will work with the 1s 3p 5d 7f 9g ... basis set
              ...i.e. with spherical basis functions...

   type   atoms  prim   cont   basis
   ---------------------------------------------------------------------------
    c        6     70     49   cc-pVTZ   [6s4p3d1f1g|12s5p4d2f1g]
    h        6     16     11   cc-pVTZ   [3s1p1d|5s2p1d]
   ---------------------------------------------------------------------------
   total:   12    516    360
   ---------------------------------------------------------------------------

   total number of primitive shells          :   32
   total number of contracted shells         :  120
   total number of cartesian basis functions :  438
   total number of SCF-basis functions       :  360


 symmetry group of the molecule :   c1 

 the group has the following generators :
   c1(z)

    1 symmetry operations found

 there are 1 real representations :   a   

 maximum number of shells which are related by symmetry :  1


    mo occupation :
   irrep   mo's   occupied
    a      264       21
 
 number of basis functions   :                    264
 number of occupied orbitals :                     21
 
  
           ------------------
           density functional
           ------------------
 PBE functional
 exchange:    LDA + PBE
 correlation: LDA (PW) + PBE

 iterations will be done with small grid
  
 spherical integration : Lebedev's spherical grid
 spherical gridsize    :                     5
    i.e. gridpoints    :                   590
 value for diffuse not defined
 radial integration    : Chebyshev 2nd kind (scaling 3)
 radial gridsize       :                     8
 integration cells     :                    12
 partition function    : becke
 partition sharpness   :                     3
  

 biggest AO integral is expected to be     3.593180334
  
           ------------------------
               RI-J - INFORMATION
           ------------------------
 Contributions to RI integral batches: 
  neglected integral batches:                   141
  direct contribution:                            0
  memory contribution:                  4515
 Memory core needed for (P|Q) and Cholesky      1 MByte
 Memory core minimum needed except of (P|Q)     1 MByte
 Total minimum memory core needed (sum)         2 MByte
  
 ****************************************
 Memory allocated for RI-J   148 MByte
 ****************************************
                                            

          ------------------------
          nuclear repulsion energy  :   203.669220218    
          ------------------------


         -----------------
         -S,T+V- integrals
         -----------------

 1e-integrals will be neglected if expon. factor < 0.111399E-13
 Difference densities >>NOT<< switched on in parallel ridft!

 DIIS switched on: error vector is FDS-SDF
 Max. Iterations for DIIS is     :   4
 DIIS matrix (see manual) 
    Scaling factor of diagonals  :  1.200
    threshold for scaling factor :  0.000

 scf convergence criterion : increment of total energy < .1000000D-08
                  and increment of one-electron energy < .1000000D-05

  MOs are in ASCII format !


 automatic virtual orbital shift switched on 
      shift if e(lumo)-e(homo) < 0.10000000    


 reading orbital data $scfmo  from file mos
 orbital characterization : expanded
 mo provided and orthogonalized by Cholesky decomposition

 DSCF restart information will be dumped onto file mos


 Starting SCF iterations

          Overall gridpoints after grid construction =         58188

 ITERATION  ENERGY          1e-ENERGY        2e-ENERGY     RMS[dD(SAO)]   TOL
   1  -231.26745901461    -704.51663419     269.57995496    0.000D+00 0.111D-12
                            Exc = -33.4915735499     Coul =  303.071528509    
                              N = 41.999983229    
                            current damping = 0.700
 
          max. resid. norm for Fia-block=  2.639D-01 for orbital     12a         
          max. resid. fock norm         =  4.724D+00 for orbital    246a         

 ITERATION  ENERGY          1e-ENERGY        2e-ENERGY     RMS[dD(SAO)]   TOL
   2  -231.86117984660    -711.55542648     276.02502641    0.337D-02 0.111D-12
                            Exc = -34.1220857232     Coul =  310.147112134    
                              N = 41.999996567    
                            current damping = 0.650
 
          Norm of current diis error:  1.9648    
          max. resid. norm for Fia-block=  1.120D-01 for orbital      5a         
          max. resid. fock norm         =  1.404D-01 for orbital     45a         

 ITERATION  ENERGY          1e-ENERGY        2e-ENERGY     RMS[dD(SAO)]   TOL
   3  -231.97495743999    -712.87338523     277.22920757    0.188D-02 0.111D-12
                            Exc = -34.2915327751     Coul =  311.520740345    
                              N = 42.000001473    
                            current damping = 0.550
 
          Norm of current diis error: 0.97280    
          max. resid. norm for Fia-block=  5.334D-02 for orbital      7a         
          max. resid. fock norm         =  6.186D-02 for orbital      7a         

 ITERATION  ENERGY          1e-ENERGY        2e-ENERGY     RMS[dD(SAO)]   TOL
   4  -232.00856340317    -714.22137380     278.54359018    0.973D-03 0.111D-12
                            Exc = -34.4179547806     Coul =  312.961544962    
                              N = 42.000007121    
                            current damping = 0.450
 
          Norm of current diis error: 0.35609    
          max. resid. norm for Fia-block=  2.049D-02 for orbital      7a         
          max. resid. fock norm         =  2.303D-02 for orbital      7a         

 ITERATION  ENERGY          1e-ENERGY        2e-ENERGY     RMS[dD(SAO)]   TOL
   5  -232.01387288158    -714.48531346     278.80222036    0.432D-03 0.111D-12
                            Exc = -34.4569476916     Coul =  313.259168052    
                              N = 42.000009110    
                            current damping = 0.300
 
          Norm of current diis error: 0.13091    
          max. resid. norm for Fia-block=  7.256D-03 for orbital      7a         
          max. resid. fock norm         =  8.304D-03 for orbital      7a         
          mo-orthogonalization: Cholesky decomposition

 ITERATION  ENERGY          1e-ENERGY        2e-ENERGY     RMS[dD(SAO)]   TOL
   6  -232.01461217770    -714.78710552     279.10327312    0.188D-03 0.111D-12
                            Exc = -34.4825338730     Coul =  313.585806994    
                              N = 42.000010407    
                            current damping = 0.150
 
          Norm of current diis error: 0.32354E-01
          max. resid. norm for Fia-block=  1.535D-03 for orbital      7a         
          max. resid. fock norm         =  2.724D-03 for orbital     65a         

 ITERATION  ENERGY          1e-ENERGY        2e-ENERGY     RMS[dD(SAO)]   TOL
   7  -232.01464794603    -714.70334695     279.01947879    0.579D-04 0.111D-12
                            Exc = -34.4796546621     Coul =  313.499133452    
                              N = 42.000010415    
                            current damping = 0.200
 
          Norm of current diis error: 0.19261E-01
          max. resid. norm for Fia-block=  5.751D-04 for orbital     12a         
          max. resid. fock norm         =  7.399D-04 for orbital     12a         

 ITERATION  ENERGY          1e-ENERGY        2e-ENERGY     RMS[dD(SAO)]   TOL
   8  -232.01466034929    -714.75475694     279.07087637    0.184D-04 0.111D-12
                            Exc = -34.4829161154     Coul =  313.553792487    
                              N = 42.000010544    
                            current damping = 0.250
 
          Norm of current diis error: 0.10955E-02
          max. resid. norm for Fia-block=  6.834D-05 for orbital     21a         
          max. resid. fock norm         =  1.500D-04 for orbital      3a         

 ITERATION  ENERGY          1e-ENERGY        2e-ENERGY     RMS[dD(SAO)]   TOL
   9  -232.01466027827    -714.75581433     279.07193384    0.272D-05 0.111D-12
                            Exc = -34.4829873030     Coul =  313.554921138    
                              N = 42.000010551    
                            current damping = 0.300
 
          Norm of current diis error: 0.17072E-02
          max. resid. norm for Fia-block=  3.272D-05 for orbital     20a         
          max. resid. fock norm         =  7.002D-05 for orbital      3a         

 ITERATION  ENERGY          1e-ENERGY        2e-ENERGY     RMS[dD(SAO)]   TOL
  10  -232.01466039082    -714.75607338     279.07219277    0.120D-05 0.111D-12
                            Exc = -34.4830091713     Coul =  313.555201942    
                              N = 42.000010553    
                            current damping = 0.150
 
          Norm of current diis error: 0.47778E-03
          max. resid. norm for Fia-block=  1.352D-05 for orbital     21a         
          max. resid. fock norm         =  3.046D-05 for orbital      4a         
          mo-orthogonalization: Cholesky decomposition

 ITERATION  ENERGY          1e-ENERGY        2e-ENERGY     RMS[dD(SAO)]   TOL
  11  -232.01466040002    -714.75602923     279.07214862    0.541D-06 0.111D-12
                            Exc = -34.4830136315     Coul =  313.555162247    
                              N = 42.000010552    
                            current damping = 0.200
 
          Norm of current diis error: 0.84905E-04
          max. resid. norm for Fia-block=  2.508D-06 for orbital     21a         
          max. resid. fock norm         =  4.899D-06 for orbital      4a         

 DENSITY CONVERGED !


 ITERATION  ENERGY          1e-ENERGY        2e-ENERGY     RMS[dD(SAO)]   TOL
  12  -232.01466040030    -714.75599718     279.07211657    0.830D-07 0.111D-12
                            Exc = -34.4830095439     Coul =  313.555126110    
                              N = 42.000010552    
                            current damping = 0.050
 
          Norm of current diis error: 0.19116E-04
          max. resid. norm for Fia-block=  9.520D-07 for orbital     14a         
          max. resid. fock norm         =  2.415D-06 for orbital      6a         

 DENSITY CONVERGED !


 ITERATION  ENERGY          1e-ENERGY        2e-ENERGY     RMS[dD(SAO)]   TOL
  13  -232.01466040030    -714.75603675     279.07215613    0.343D-07 0.111D-12
                            Exc = -34.4830122917     Coul =  313.555168426    
                              N = 42.000010553    
                            current damping = 0.100
 
          Norm of current diis error: 0.22237E-04
          max. resid. norm for Fia-block=  4.549D-07 for orbital     20a         
          max. resid. fock norm         =  1.149D-06 for orbital      6a         

 ENERGY & DENSITY CONVERGED !

          Overall gridpoints after grid construction =        188425

 ITERATION  ENERGY          1e-ENERGY        2e-ENERGY     RMS[dD(SAO)]   TOL
  14  -232.01463821139    -714.75602287     279.07216444    0.150D-07 0.111D-12
                            Exc = -34.4829892820     Coul =  313.555153726    
                              N = 41.999998904    
                            current damping = 0.150
 
          Norm of current diis error: 0.38754E-05
          max. resid. norm for Fia-block=  8.030D-08 for orbital     14a         
          max. resid. fock norm         =  1.886D-07 for orbital      6a         

 End of SCF iterations

   convergence criteria satisfied after    14 iterations


                  ------------------------------------------ 
                 |  total energy      =   -232.01463821139  |
                  ------------------------------------------ 
                 :  kinetic energy    =    230.53846979579  :
                 :  potential energy  =   -462.55310800718  :
                 :  virial theorem    =      1.99363760655  :
                 :  wavefunction norm =      1.00000000000  :
                  .......................................... 


 <geterg> : there is no data group $energy 


 <skperg> : $end is missing 


 orbitals $scfmo  will be written to file mos

    irrep                 17a         18a         19a         20a         21a   
 eigenvalues H         -0.33120    -0.30034    -0.30022    -0.23039    -0.23035
            eV          -9.0125     -8.1726     -8.1695     -6.2692     -6.2683
 occupation              2.0000      2.0000      2.0000      2.0000      2.0000 

    irrep                 22a         23a         24a         25a         26a   
 eigenvalues H         -0.04023    -0.04020     0.02236     0.05561     0.05564
            eV          -1.0946     -1.0939      0.6083      1.5131      1.5140
 
 
 
 
 ==============================================================================
                           electrostatic moments
 ==============================================================================

 reference point for electrostatic moments:    0.00000   0.00000   0.00000

 
              nuc           elec       ->  total
 ------------------------------------------------------------------------------
                          charge      
 ------------------------------------------------------------------------------
          42.000000     -42.000000      -0.000000
 
 ------------------------------------------------------------------------------
                       dipole moment  
 ------------------------------------------------------------------------------
   x      -0.866106       0.866371       0.000264
   y      -3.828191       3.828379       0.000188
   z      43.114541     -43.112706       0.001835
 
   | dipole moment | =     0.0019 a.u. =     0.0047 debye 
 
 ------------------------------------------------------------------------------
                     quadrupole moment
 ------------------------------------------------------------------------------
  xx     188.697948    -212.546686     -23.848738
  yy     188.159639    -212.030361     -23.870722
  zz      48.880085     -78.007841     -29.127756
  xy      -2.217517       2.148977      -0.068540
  xz     -19.478749      18.948667      -0.530082
  yz     -26.591276      25.939878      -0.651398
 
     1/3  trace=     -25.615738
     anisotropy=       5.466486
 
 ==============================================================================
 


    ------------------------------------------------------------------------
         total  cpu-time :  2 minutes and  5 seconds
         total wall-time :  12.83 seconds
    ------------------------------------------------------------------------

   ****  ridft : all done  ****


    2018-04-28 20:57:25.738 

