Using Slurm to start processes with PMI2
STARTING ridft ON 8 PROCESSORS!
RUNNING PROGRAM /beegfs/modfac/apps/TURBOMOLE/7.0_intel_GA/bin/em64t-unknown-linux-gnu_mpi/ridft_mpi.
PLEASE WAIT UNTIL ridft HAS FINISHED.
Look for the output in slave1.output.
  this is node-proc. number 1 running on node c-8-17.local
  the total number of node-proc. spawned is            8
  parallel platform: MPP, or cluster with fast interconnect

 ridft (c-8-17.local) : TURBOMOLE V7.0.2( ) 15 Jan 2016 at 17:47:42
 Copyright (C) 2016 TURBOMOLE GmbH, Karlsruhe


    2018-02-01 20:16:04.508 



                                  r i d f t

                        DFT program with RI approximation 
                                for coulomb part 




                                                 
                                 References:     
                                                 
          TURBOMOLE:                             
              R. Ahlrichs, M. Baer, M. Haeser, H. Horn, and
              C. Koelmel
              Electronic structure calculations on workstation
              computers: the program system TURBOMOLE
              Chem. Phys. Lett. 162: 165 (1989)
          Density Functional:                              
              O. Treutler and R. Ahlrichs                      
              Efficient Molecular Numerical Integration Schemes
              J. Chem. Phys. 102: 346 (1995)                   
          Parallel Version:                                
              Performance of parallel TURBOMOLE for Density    
              Functional Calculations                          
              M. v. Arnim and R. Ahlrichs                      
              J. Comp. Chem. 19: 1746 (1998)                   
          RI-J Method:                                     
              Auxiliary Basis Sets to approximate Coulomb      
              Potentials                                       
              Chem. Phys. Lett. 240: 283 (1995)                
              K. Eichkorn, O. Treutler, H. Oehm, M. Haeser     
              and R. Ahlrichs                                  
              Chem. Phys. Lett. 242: 652 (1995)                
                                                           
              Auxiliary Basis Sets for Main Row Atoms and their
              Use to approximate Coulomb Potentials            
              K. Eichkorn, F. Weigend, O. Treutler and         
              R. Ahlrichs                                      
              Theo. Chem. Acc. 97: 119 (1997)                   
                                                           
              Accurate Coulomb-fitting basis sets for H to Rn 
              F. Weigend                                        
              Phys. Chem. Chem. Phys. 8: 1057 (2006)            
                                                           
          Multipole accelerated RI-J (MARI-J):             
              Fast evaluation of the Coulomb potential for     
              electron densities using multipole accelerated   
              resolution of identity approximation             
              M. Sierka, A. Hogekamp and R. Ahlrichs           
              J. Chem. Phys. 118: 9136 (2003)                  
          RI-JK Method:                                     
              A fully direct RI-HF algorithm: Implementation,
              optimised auxiliary basis sets, demonstration of
              accuracy and efficiency                         
              F. Weigend                                      
              Phys. Chem. Chem. Phys. 4: 4285 (2002)           
          Two-component HF and DFT with spin-orbit coupling:  
              Self-consistent treatment of spin-orbit         
              interactions with efficient Hartree-Fock and    
              density functional methods                      
              M. K. Armbruster, F. Weigend, C. van Wüllen and 
              W. Klopper                                      
              Phys. Chem. Chem. Phys. 10: 1748 (2008)         
          Relativistic all-electron 2c calculations           
              An efficient implementation of two-component    
              relativistic exact-decoupling methods for large 
              molecules                                       
              D. Peng, N. Middendorf, F. Weigend, M. Reiher   
              J. Chem. Phys. 138, 184105 (2013)               
                                         


 


              +--------------------------------------------------+
              |      general information about current run       |
              +--------------------------------------------------+

 

 SCF run will be profiled !


 DENSITY CONVERGENCE CHECK SWITCHED ON !
 SCF CONVERGENCE IF RMS(delta[D]) <     0.1000000000E-06

 TPSS meta-GGA functional
 exchange:    LDA + TPSS
 correlation: LDA (PW) + TPSS
 A DFT calculation using the RI-J approximation will be carried out.
 Allocatable memory for RI due to $ricore (MB):        5000


              +--------------------------------------------------+
              | Atomic coordinate, charge and isotop information |
              +--------------------------------------------------+

                    atomic coordinates            atom    charge  isotop
         -5.66350922    4.31235504   -2.49632822    c      6.000     0
         -9.61114711    3.98543241   -0.17007535    c      6.000     0
         -8.35258951    4.12149270    2.06169121    c      6.000     0
         -5.64650169    4.31424476    1.95208710    c      6.000     0
          2.20908985    4.48809957    1.92374120    c      6.000     0
          2.21853848    4.55990916   -2.76466933    c      6.000     0
          5.90728389    4.46920230   -0.76722881    c      6.000     0
          4.89061123    4.48620984    1.67807681    c      6.000     0
          8.87793337    4.32180367    2.18641314    c      6.000     0
         -8.32046416    4.09314680   -2.39239328    n      7.000     0
         -4.40306189    4.42573860   -0.26456166    n      7.000     0
         -4.26511188    4.38605435    4.06858036    n      7.000     0
          1.01478293    4.53723245   -0.45731372    n      7.000     0
          4.72053588    4.51266601   -3.01789263    n      7.000     0
          6.77844764    4.39550299    3.49410362    n      7.000     0
          8.47920116    4.38416463   -0.40440139    n      7.000     0
          0.74833155    4.66951327   -4.84903726    n      7.000     0
         -4.63738793    4.36715709   -4.60337286    o      8.000     0
          0.91084800    4.42195915    3.89094611    o      8.000     0
         -9.20485599    3.85315158   -4.07424954    h      1.000     0
        -11.64071298    3.75488583   -0.29857673    h      1.000     0
         -9.35414436    4.00243995    3.83992350    h      1.000     0
         -5.11926809    4.10259543    5.75232635    h      1.000     0
         -2.29034807    4.40495162    3.99110159    h      1.000     0
         -0.96187060    4.51644546   -0.41951920    h      1.000     0
         10.76199033    4.20275092    2.96498030    h      1.000     0
          9.78689164    4.18385366   -1.78579120    h      1.000     0
          1.64406174    4.40306189   -6.51388598    h      1.000     0
         -1.19052746    4.50321737   -4.77911739    h      1.000     0
         11.64638216   -1.85382134    1.95586655    c      6.000     0
         10.94340404   -1.85382134    4.43896669    c      6.000     0
          8.33747170   -1.79335010    5.17029070    c      6.000     0
          6.45908392   -1.78012202    3.22954196    c      6.000     0
          7.18851821   -1.80279873    0.64439661    c      6.000     0
          9.80578890   -1.78957065   -0.03212534    c      6.000     0
          5.31768934   -1.71776105   -1.27556514    c      6.000     0
         10.48042113   -1.68752544   -2.59081453    c      6.000     0
          8.66061487   -1.57603159   -4.51455573    c      6.000     0
          6.03956472   -1.61193639   -3.85504131    c      6.000     0
          9.32579847   -1.42296378   -7.13749560    c      6.000     0
          7.52299974   -1.31524939   -8.97808886    c      6.000     0
          4.88116260   -1.37572062   -8.37715595    c      6.000     0
          4.16306667   -1.54579598   -5.77689279    c      6.000     0
          1.56280351   -1.60626721   -5.11926809    c      6.000     0
          0.83714868   -1.73287886   -2.53034329    c      6.000     0
          2.70608782   -1.72343023   -0.61227127    c      6.000     0
          3.86071049   -1.76122476    3.89472556    c      6.000     0
          1.98232271   -1.75555558    1.96909463    c      6.000     0
         -0.61416099   -1.78957065    2.62860905    c      6.000     0
         -2.48498986   -1.83870353    0.71242675    c      6.000     0
         -1.76122476   -1.77445284   -1.86704942    c      6.000     0
         -0.31369454   -1.56280351   -7.03545039    c      6.000     0
         -2.91584742   -1.66484872   -6.37404625    c      6.000     0
         -3.63961253   -1.80657818   -3.79645980    c      6.000     0
          3.00088510   -1.29257267  -10.23853619    c      6.000     0
          0.42329865   -1.39461789   -9.63004437    c      6.000     0
         -4.81124273   -1.63461310   -8.29967718    c      6.000     0
         -7.36237301   -1.76878366   -7.60803741    c      6.000     0
         -8.11637374   -1.92185148   -5.07580439    c      6.000     0
         -6.23798596   -1.90862339   -3.13127620    c      6.000     0
         -5.09470165   -1.94830764    1.37572062    c      6.000     0
         -6.96364080   -2.03145559   -0.54613085    c      6.000     0
         -1.51933981   -1.35304391  -11.51977051    c      6.000     0
         -4.01566803   -1.47398638  -10.88482253    c      6.000     0
         -9.57902177   -2.15995697    0.13228083    c      6.000     0
        -11.41772529   -2.19775149   -1.85571106    c      6.000     0
        -10.72041635   -2.06925012   -4.34070093    c      6.000     0
        -10.25365400   -2.19208231    2.69285974    c      6.000     0
         -8.43951691   -2.05224258    4.61849067    c      6.000     0
         -5.81846676   -1.93507956    3.95897625    c      6.000     0
         -3.94196871   -1.82358572    5.88082773    c      6.000     0
         -1.34359528   -1.73665832    5.21942358    c      6.000     0
          0.53101304   -1.67240763    7.13560588    c      6.000     0
          3.13316593   -1.67618708    6.47231201    c      6.000     0
          5.02667151   -1.64217201    8.39794293    c      6.000     0
          7.58158125   -1.71587133    7.70441344    c      6.000     0
          4.22920709   -1.54201652   10.98497801    c      6.000     0
         -0.20975960   -1.58925968    9.73397931    c      6.000     0
          1.73098914   -1.50989118   11.62370544    c      6.000     0
         -4.66573382   -1.73665832    8.48487034    c      6.000     0
         -2.78734605   -1.60626721   10.34814030    c      6.000     0
         -9.10847996   -1.97476381    7.24332027    c      6.000     0
         -7.30757096   -1.81035764    9.08580325    c      6.000     0
         13.63626377   -1.88783641    1.44186104    h      1.000     0
         12.37203699   -1.88405695    5.91673252    h      1.000     0
         12.47408220   -1.68185626   -3.10104058    h      1.000     0
         11.31756981   -1.39272816   -7.63638330    h      1.000     0
          8.06913059   -1.19052746  -10.95663212    h      1.000     0
          3.55457486   -1.16407130  -12.21518972    h      1.000     0
         -8.79856487   -1.76311448   -9.08013407    h      1.000     0
         -0.95809115   -1.22832199  -13.49264459    h      1.000     0
         -5.45752907   -1.44564049  -12.34936028    h      1.000     0
        -13.40571719   -2.32436314   -1.34548501    h      1.000     0
        -12.15093903   -2.10137546   -5.81657704    h      1.000     0
        -12.24542534   -2.28656862    3.19930634    h      1.000     0
          9.01588338   -1.69508434    9.17651010    h      1.000     0
          5.67295785   -1.48910419   12.44762604    h      1.000     0
          1.16785075   -1.43241241   13.59846925    h      1.000     0
         -3.34292553   -1.54012680   12.32668356    h      1.000     0
        -11.09836158   -2.05413231    7.74598742    h      1.000     0
         -7.85748126   -1.74988640   11.06623623    h      1.000     0
 
       center of nuclear mass  :    0.00041850   -0.00628277    0.01160794
       center of nuclear charge:   -0.01582942    0.00634126    0.01082046

              +--------------------------------------------------+
              |               basis set information              |
              +--------------------------------------------------+

              we will work with the 1s 3p 5d 7f 9g ... basis set
              ...i.e. with spherical basis functions...

   type   atoms  prim   cont   basis
   ---------------------------------------------------------------------------
    c       63     77     55   cc-pVQZ   [5s4p3d2f1g|21s6p3d2f1g]
    n        8     77     55   cc-pVQZ   [5s4p3d2f1g|21s6p3d2f1g]
    o        2     77     55   cc-pVQZ   [5s4p3d2f1g|21s6p3d2f1g]
    h       28     32     30   cc-pVQZ   [4s3p2d1f|6s3p2d1f]
   ---------------------------------------------------------------------------
   total:  101   6517   4855
   ---------------------------------------------------------------------------

   total number of primitive shells          :  111
   total number of contracted shells         : 1375
   total number of cartesian basis functions : 6090
   total number of SCF-basis functions       : 4855


 integral neglect threshold       :  0.55E-14
 integral storage threshold THIZE :  0.10E-04
 integral storage threshold THIME :         5

 RI-J AUXILIARY BASIS SET information:

              we will work with the 1s 3p 5d 7f 9g ... basis set
              ...i.e. with spherical basis functions...

   type   atoms  prim   cont   basis
   ---------------------------------------------------------------------------
    c       63     70     49   cc-pVQZ   [6s4p3d1f1g|12s5p4d2f1g]
    n        8     70     49   cc-pVQZ   [6s4p3d1f1g|12s5p4d2f1g]
    o        2     70     49   cc-pVQZ   [6s4p3d1f1g|12s5p4d2f1g]
    h       28     16     11   cc-pVQZ   [3s1p1d|5s2p1d]
   ---------------------------------------------------------------------------
   total:  101   5558   3885
   ---------------------------------------------------------------------------

   total number of primitive shells          :   80
   total number of contracted shells         : 1235
   total number of cartesian basis functions : 4789
   total number of SCF-basis functions       : 3885


 symmetry group of the molecule :   c1 

 the group has the following generators :
   c1(z)

    1 symmetry operations found

 there are 1 real representations :   a   

 maximum number of shells which are related by symmetry :  1


    mo occupation :
   irrep   mo's   occupied
    a     4855      239
 
 number of basis functions   :         4855
 number of occupied orbitals :          239
 
  
           ------------------
           density functional
           ------------------
 TPSS meta-GGA functional
 exchange:    LDA + TPSS
 correlation: LDA (PW) + TPSS
 grinp -> nfun, dfgga, dfhybrid 
           5 F F
 iterations will be done with small grid
  
 spherical integration : Lebedev's spherical grid
 spherical gridsize    :           5
    i.e. gridpoints    :         590
 value for diffuse not defined
 radial integration    : Chebyshev 2nd kind (scaling 3)
 radial gridsize       :           8
 integration cells     :         101
 partition function    : becke
 partition sharpness   :           3
  

 <rddim> : input of entry tasksize
           from data group '$pardft' failed !

               Default values taken

 <rddim> : input of entry memdiv
           from data group '$pardft' failed !

               Default values taken
  RIDFT: memory allocation for DFT gridpoints
  MEMORY is divided by 1 as DEFAULT
 Each node can hold at most  the            1 -th part
 of the gridpoints    

 biggest AO integral is expected to be     4.785886462
  
           ------------------------
               RI-J - INFORMATION
           ------------------------
 
 
 **************************************************
 *      MEMORY ALLOCATION FOR PARALLEL RI-DFT     *
 **************************************************
 
 
MEMORY FOR (MU NU/ ALPHA), SEQUENTIAL RUN               4874 MByte
 
            DIFFERENCE IN MEMORY NEED:       DIAG./SLAVE  
 
      TOTAL DIFFERENCE :                   1085 MByte
 
      difference in xcore:                  127 MByte
      difference in fatmat:                 316 MByte
      getcor calls skipped by slaves:       643 MByte
 
 
           Integral memory available for diagonal.      4874 MByte
 
           Integral memory available for slave             0 MByte
 
         MEMORY FOR (MU NU/ ALPHA) ON DIAGONALIZER      4874 MByte
 
         MEMORY FOR (MU NU/ ALPHA) ON ONE SLAVE            0 MByte
 
         TOTAL MEMORY FOR (MU NU/ ALPHA),ALL NODES      4874 MByte
 
 Contributions to RI integral batches: 
  neglected integral batches:      579069
  direct contribution:             329062
  memory contribution:       37869
 Memory core needed for (P|Q) and Cholesky    116 MByte
 Memory core minimum needed except of (P|Q)    13 MByte
 Total minimum memory core needed (sum)       128 MByte
     number of direct tasks:         160
  
 ****************************************
 Memory allocated for RI-J  5001 MByte
 ****************************************
                                            

          ------------------------
          nuclear repulsion energy  :   12025.7164599    
          ------------------------

 
          -----------------
          -S integrals
          -----------------

 1e-integrals will be neglected if expon. factor < 0.548762E-15
 
          -----------------
          -T+V integrals
          -----------------

 1e-integrals will be neglected if expon. factor < 0.548762E-15
 Difference densities >>NOT<< switched on in parallel ridft!

 automatic virtual orbital shift switched on 
      shift if e(lumo)-e(homo) < 0.10000000    


 DIIS switched on: error vector is FDS-SDF
 Max. Iterations for DIIS is     :   4
 DIIS matrix (see manual) 
    Scaling factor of diagonals  :  1.200
    threshold for scaling factor :  0.000

 scf convergence criterion : increment of total energy < .1000000D-08
                  and increment of one-electron energy < .1000000D-05


 <geterg> : there is no data group $energy 

  MOs are in ASCII format !


 reading orbital data $scfmo  from file mos . 

 orbital characterization : expanded
 
 mo provided and orthogonalized by Cholesky decomposition

 DSCF restart information will be dumped onto file mos


 Starting SCF iterations


 ITERATION  ENERGY          1e-ENERGY        2e-ENERGY     RMS[dD(SAO)]   TOL
   1  -2998.7548730536    -27943.860906     12919.389573    0.000D+00 0.547D-14
                            Exc = -419.031390380     Coul =  13338.4209637    
                              N = 478.00908159    
                            current damping = 0.700
 
          max. resid. norm for Fia-block=  3.511D-01 for orbital    140a         
          max. resid. fock norm         =  7.441D+00 for orbital   4381a         

 ITERATION  ENERGY          1e-ENERGY        2e-ENERGY     RMS[dD(SAO)]   TOL
   2  -3006.3010032232    -28018.267209     12986.249746    0.103D+00 0.547D-14
                            Exc = -423.694385438     Coul =  13409.9441311    
                              N = 478.00750773    
                            current damping = 0.650
 
          Norm of current diis error:  9.6825    
          max. resid. norm for Fia-block=  1.623D-01 for orbital      1a         
          max. resid. fock norm         =  3.529D-01 for orbital   4776a         

 ITERATION  ENERGY          1e-ENERGY        2e-ENERGY     RMS[dD(SAO)]   TOL
   3  -3007.6562550821    -28036.657525     13003.284810    0.255D-01 0.547D-14
                            Exc = -425.651519413     Coul =  13428.9363295    
                              N = 478.00662599    
                            current damping = 0.550
 
          Norm of current diis error:  4.7649    
          max. resid. norm for Fia-block=  8.338D-02 for orbital    210a         
          max. resid. fock norm         =  8.847D-02 for orbital    210a         

 ITERATION  ENERGY          1e-ENERGY        2e-ENERGY     RMS[dD(SAO)]   TOL
   4  -3008.0759816653    -28048.810342     13015.017900    0.393D-02 0.547D-14
                            Exc = -426.079913385     Coul =  13441.0978134    
                              N = 478.00625054    
                            current damping = 0.450
 
          Norm of current diis error:  2.0835    
          max. resid. norm for Fia-block=  6.620D-02 for orbital    239a         
          max. resid. fock norm         =  1.362D-01 for orbital   4603a         

 ITERATION  ENERGY          1e-ENERGY        2e-ENERGY     RMS[dD(SAO)]   TOL
   5  -3008.1256196948    -28052.178871     13018.336792    0.211D-02 0.547D-14
                            Exc = -426.746525181     Coul =  13445.0833167    
                              N = 478.00602190    
                            current damping = 0.350
 
          Norm of current diis error:  1.4564    
          max. resid. norm for Fia-block=  2.609D-02 for orbital    229a         
          max. resid. fock norm         =  4.482D-02 for orbital   4571a         
          mo-orthogonalization: Cholesky decomposition

 ITERATION  ENERGY          1e-ENERGY        2e-ENERGY     RMS[dD(SAO)]   TOL
   6  -3008.1729782230    -28054.671410     13020.781972    0.213D-02 0.547D-14
                            Exc = -426.765418146     Coul =  13447.5473898    
                              N = 478.00595910    
                            current damping = 0.250
 
          Norm of current diis error: 0.55095    
          max. resid. norm for Fia-block=  1.037D-02 for orbital    239a         
          max. resid. fock norm         =  1.800D-02 for orbital   4848a         
          irrep a   : virtual orbitals shifted by    0.01919

 ITERATION  ENERGY          1e-ENERGY        2e-ENERGY     RMS[dD(SAO)]   TOL
   7  -3008.1740255951    -28054.369006     13020.478520    0.869D-03 0.547D-14
                            Exc = -426.733783631     Coul =  13447.2123038    
                              N = 478.00594298    
                            current damping = 0.300
 
          Norm of current diis error: 0.51727    
          max. resid. norm for Fia-block=  4.777D-03 for orbital    232a         
          max. resid. fock norm         =  9.944D-03 for orbital   4570a         
          irrep a   : virtual orbitals shifted by    0.01645

 ITERATION  ENERGY          1e-ENERGY        2e-ENERGY     RMS[dD(SAO)]   TOL
   8  -3008.1801219575    -28054.337175     13020.440593    0.276D-03 0.547D-14
                            Exc = -426.756287544     Coul =  13447.1968804    
                              N = 478.00594162    
                            current damping = 0.150
 
          Norm of current diis error: 0.14212    
          max. resid. norm for Fia-block=  3.065D-03 for orbital    221a         
          max. resid. fock norm         =  4.879D-03 for orbital   4643a         
          irrep a   : virtual orbitals shifted by    0.02684

 ITERATION  ENERGY          1e-ENERGY        2e-ENERGY     RMS[dD(SAO)]   TOL
   9  -3008.1801937830    -28054.820538     13020.923884    0.171D-03 0.547D-14
                            Exc = -426.783564305     Coul =  13447.7074484    
                              N = 478.00593655    
                            current damping = 0.200
 
          Norm of current diis error: 0.13296    
          max. resid. norm for Fia-block=  1.368D-03 for orbital    221a         
          max. resid. fock norm         =  2.329D-03 for orbital     76a         
          irrep a   : virtual orbitals shifted by    0.02363

 ITERATION  ENERGY          1e-ENERGY        2e-ENERGY     RMS[dD(SAO)]   TOL
  10  -3008.1805726621    -28054.483251     13020.586218    0.121D-03 0.547D-14
                            Exc = -426.773740456     Coul =  13447.3599586    
                              N = 478.00593585    
                            current damping = 0.250
 
          Norm of current diis error: 0.40257E-01
          max. resid. norm for Fia-block=  7.028D-04 for orbital    188a         
          max. resid. fock norm         =  1.472D-03 for orbital   4737a         
          irrep a   : virtual orbitals shifted by    0.02032
          mo-orthogonalization: Cholesky decomposition

 ITERATION  ENERGY          1e-ENERGY        2e-ENERGY     RMS[dD(SAO)]   TOL
  11  -3008.1805999930    -28054.647586     13020.750527    0.329D-04 0.547D-14
                            Exc = -426.771411431     Coul =  13447.5219379    
                              N = 478.00593752    
                            current damping = 0.300
 
          Norm of current diis error: 0.22395E-01
          max. resid. norm for Fia-block=  2.268D-04 for orbital    238a         
          max. resid. fock norm         =  4.888D-04 for orbital   4801a         
          irrep a   : virtual orbitals shifted by    0.01727

 ITERATION  ENERGY          1e-ENERGY        2e-ENERGY     RMS[dD(SAO)]   TOL
  12  -3008.1806081308    -28054.516805     13020.619737    0.182D-04 0.547D-14
                            Exc = -426.771413934     Coul =  13447.3911510    
                              N = 478.00593706    
                            current damping = 0.350
 
          Norm of current diis error: 0.12688E-01
          max. resid. norm for Fia-block=  1.524D-04 for orbital    188a         
          max. resid. fock norm         =  2.608D-04 for orbital   4737a         
          irrep a   : virtual orbitals shifted by    0.01409

 ITERATION  ENERGY          1e-ENERGY        2e-ENERGY     RMS[dD(SAO)]   TOL
  13  -3008.1806118499    -28054.554732     13020.657660    0.555D-05 0.547D-14
                            Exc = -426.771139343     Coul =  13447.4287993    
                              N = 478.00593706    
                            current damping = 0.400
 
          Norm of current diis error: 0.19672E-02
          max. resid. norm for Fia-block=  5.050D-05 for orbital    188a         
          max. resid. fock norm         =  7.631D-05 for orbital   4576a         
          irrep a   : virtual orbitals shifted by    0.01088

 ITERATION  ENERGY          1e-ENERGY        2e-ENERGY     RMS[dD(SAO)]   TOL
  14  -3008.1806118483    -28054.552855     13020.655783    0.186D-05 0.547D-14
                            Exc = -426.771607921     Coul =  13447.4273913    
                              N = 478.00593693    
                            current damping = 0.450
 
          Norm of current diis error: 0.19803E-02
          max. resid. norm for Fia-block=  1.454D-05 for orbital    238a         
          max. resid. fock norm         =  3.671D-05 for orbital   4785a         
          irrep a   : virtual orbitals shifted by    0.00770

 ITERATION  ENERGY          1e-ENERGY        2e-ENERGY     RMS[dD(SAO)]   TOL
  15  -3008.1806119308    -28054.555766     13020.658694    0.939D-06 0.547D-14
                            Exc = -426.771571927     Coul =  13447.4302659    
                              N = 478.00593693    
                            current damping = 0.500
 
          Norm of current diis error: 0.83688E-03
          max. resid. norm for Fia-block=  1.027D-05 for orbital    239a         
          max. resid. fock norm         =  1.739D-05 for orbital   4806a         
          irrep a   : virtual orbitals shifted by    0.00452
          mo-orthogonalization: Cholesky decomposition

 ITERATION  ENERGY          1e-ENERGY        2e-ENERGY     RMS[dD(SAO)]   TOL
  16  -3008.1806119454    -28054.555990     13020.658919    0.507D-06 0.547D-14
                            Exc = -426.771472150     Coul =  13447.4303908    
                              N = 478.00593696    
                            current damping = 0.350
 
          Norm of current diis error: 0.26660E-03
          max. resid. norm for Fia-block=  4.345D-06 for orbital    188a         
          max. resid. fock norm         =  6.955D-06 for orbital   4829a         
          irrep a   : virtual orbitals shifted by    0.01407

 ITERATION  ENERGY          1e-ENERGY        2e-ENERGY     RMS[dD(SAO)]   TOL
  17  -3008.1806119465    -28054.554591     13020.657519    0.268D-06 0.547D-14
                            Exc = -426.771442931     Coul =  13447.4289618    
                              N = 478.00593696    
                            current damping = 0.400
 
          Norm of current diis error: 0.18496E-03
          max. resid. norm for Fia-block=  1.707D-06 for orbital    238a         
          max. resid. fock norm         =  3.877D-06 for orbital   4841a         
          irrep a   : virtual orbitals shifted by    0.01089

 ITERATION  ENERGY          1e-ENERGY        2e-ENERGY     RMS[dD(SAO)]   TOL
  18  -3008.1806119473    -28054.555637     13020.658566    0.122D-06 0.547D-14
                            Exc = -426.771439349     Coul =  13447.4300050    
                              N = 478.00593696    
                            current damping = 0.450
 
          Norm of current diis error: 0.85468E-04
          max. resid. norm for Fia-block=  1.681D-06 for orbital    188a         
          max. resid. fock norm         =  2.912D-06 for orbital   4576a         
          irrep a   : virtual orbitals shifted by    0.00770

 DENSITY CONVERGED !


 ITERATION  ENERGY          1e-ENERGY        2e-ENERGY     RMS[dD(SAO)]   TOL
  19  -3008.1806119473    -28054.555444     13020.658373    0.516D-07 0.547D-14
                            Exc = -426.771442600     Coul =  13447.4298152    
                              N = 478.00593696    
                            current damping = 0.500
 
          Norm of current diis error: 0.40897E-04
          max. resid. norm for Fia-block=  6.375D-07 for orbital    188a         
          max. resid. fock norm         =  1.316D-06 for orbital   4576a         
          irrep a   : virtual orbitals shifted by    0.00452

 DENSITY CONVERGED !


 ITERATION  ENERGY          1e-ENERGY        2e-ENERGY     RMS[dD(SAO)]   TOL
  20  -3008.1806119474    -28054.555376     13020.658304    0.382D-07 0.547D-14
                            Exc = -426.771442393     Coul =  13447.4297462    
                              N = 478.00593696    
                            current damping = 0.350
 
          Norm of current diis error: 0.23495E-04
          max. resid. norm for Fia-block=  3.587D-07 for orbital    239a         
          max. resid. fock norm         =  7.311D-07 for orbital   4576a         
          irrep a   : virtual orbitals shifted by    0.01407
          mo-orthogonalization: Cholesky decomposition

 DENSITY CONVERGED !


 ITERATION  ENERGY          1e-ENERGY        2e-ENERGY     RMS[dD(SAO)]   TOL
  21  -3008.1806119475    -28054.555456     13020.658384    0.275D-07 0.547D-14
                            Exc = -426.771445402     Coul =  13447.4298297    
                              N = 478.00593696    
                            current damping = 0.400
 
          Norm of current diis error: 0.15354E-04
          max. resid. norm for Fia-block=  1.771D-07 for orbital    188a         
          max. resid. fock norm         =  3.429D-07 for orbital   4576a         
          irrep a   : virtual orbitals shifted by    0.01089

 DENSITY CONVERGED !


 ITERATION  ENERGY          1e-ENERGY        2e-ENERGY     RMS[dD(SAO)]   TOL
  22  -3008.1806119473    -28054.555404     13020.658332    0.976D-08 0.547D-14
                            Exc = -426.771444231     Coul =  13447.4297765    
                              N = 478.00593696    
                            current damping = 0.450
 
          Norm of current diis error: 0.56506E-05
          max. resid. norm for Fia-block=  7.138D-08 for orbital    239a         
          max. resid. fock norm         =  1.294D-07 for orbital   4841a         
          irrep a   : virtual orbitals shifted by    0.00770

 DENSITY CONVERGED !


 ITERATION  ENERGY          1e-ENERGY        2e-ENERGY     RMS[dD(SAO)]   TOL
  23  -3008.1806119475    -28054.555442     13020.658370    0.488D-08 0.547D-14
                            Exc = -426.771443642     Coul =  13447.4298135    
                              N = 478.00593696    
                            current damping = 0.500
 
          Norm of current diis error: 0.46407E-05
          max. resid. norm for Fia-block=  8.148D-08 for orbital    188a         
          max. resid. fock norm         =  1.472D-07 for orbital   4576a         
          irrep a   : virtual orbitals shifted by    0.00452

 ENERGY & DENSITY CONVERGED !


 ITERATION  ENERGY          1e-ENERGY        2e-ENERGY     RMS[dD(SAO)]   TOL
  24  -3008.1783842457    -28054.555425     13020.660581    0.479D-08 0.547D-14
                            Exc = -426.769215983     Coul =  13447.4297968    
                              N = 478.00030100    
                            current damping = 0.550
 
          Norm of current diis error: 0.26109E-05
          max. resid. norm for Fia-block=  4.157D-08 for orbital    188a         
          max. resid. fock norm         =  9.928D-08 for orbital   1630a         

 End of SCF iterations

   convergence criteria satisfied after   24 iterations


                  ------------------------------------------ 
                 |  total energy      =  -3008.17838424574  |
                  ------------------------------------------ 
                 :  kinetic energy    =   2994.93445907759  :
                 :  potential energy  =  -6003.11284332333  :
                 :  virial theorem    =      1.99559736044  :
                 :  wavefunction norm =      1.00000000000  :
                  .......................................... 


 <geterg> : there is no data group $energy 


 <skperg> : $end is missing 


 orbitals $scfmo  will be written to file mos

    irrep                235a        236a        237a        238a        239a   
 eigenvalues H         -0.20060    -0.19976    -0.17324    -0.17222    -0.16485
            eV          -5.4587     -5.4358     -4.7141     -4.6864     -4.4857
 occupation              2.0000      2.0000      2.0000      2.0000      2.0000 

    irrep                240a        241a        242a        243a        244a   
 eigenvalues H         -0.10119    -0.10032    -0.07461    -0.07398    -0.06678
            eV          -2.7537     -2.7299     -2.0304     -2.0130     -1.8173
 
 
 ! grave: sending quit signal to master process
 
 
 
 
 ==============================================================================
                           electrostatic moments
 ==============================================================================

 reference point for electrostatic moments:    0.00000   0.00000   0.00000

 
              nuc           elec       ->  total
 ------------------------------------------------------------------------------
                          charge      
 ------------------------------------------------------------------------------
         478.000000    -478.000000      -0.000000
 
 ------------------------------------------------------------------------------
                       dipole moment  
 ------------------------------------------------------------------------------
   x      -7.566463       6.240548      -1.325916
   y       3.031121      -3.432646      -0.401525
   z       5.172180      -5.533507      -0.361326
 
   | dipole moment | =     1.4317 a.u. =     3.6391 debye 
 
 ------------------------------------------------------------------------------
                     quadrupole moment
 ------------------------------------------------------------------------------
  xx   19140.654147  -19383.661769    -243.007622
  yy    3641.554814   -3961.266641    -319.711828
  zz   15537.548563  -15812.913356    -275.364793
  xy      83.784342     -90.713141      -6.928800
  xz     273.424891    -279.387484      -5.962593
  yz    -259.428116     256.694413      -2.733703
 
     1/3  trace=    -279.361414
     anisotropy=      68.714571
 
 ==============================================================================
 

    ridft profiling
  --------------------------------------------------------------------
             module   cpu total (s)       %  wall total (s)       %

               RIDFT         23100.6  100.00         23121.1  100.00
         Ridft_b_scf           390.6    1.69           390.4    1.69
        b_scf_prelim             0.0    0.00             0.0    0.00
        b_scf_molinp             0.0    0.00             0.0    0.00
         b_scf_init0             0.0    0.00             0.0    0.00
        b_scf_auxbas             0.0    0.00             0.0    0.00
      b_scf_symmetry             0.0    0.00             0.0    0.00
         b_scf_cosmo             0.0    0.00             0.0    0.00
        b_scf_params            33.3    0.14            33.3    0.14
          b_scf_ri-j            80.9    0.35            80.9    0.35
    b_scf_ri-j_auxpq            80.7    0.35            80.7    0.35
     ri-j_auxpq_chol             8.2    0.04             8.2    0.04
         b_scf_1elec            17.1    0.07            17.1    0.07
       b_scf_moinput           259.2    1.12           259.0    1.12
     moinput_orthmos           257.8    1.12           257.6    1.11
    b_scf_dft-dstmax             0.0    0.00             0.0    0.00
           Ridft_scf         22705.8   98.29         22726.4   98.29
          Scf_b_loop             0.0    0.00             0.0    0.00
                noga             0.0    0.00             0.0    0.00
            Scf_loop         22689.7   98.22         22710.3   98.22
     scf_loop_mkdmat            70.2    0.30            71.1    0.31
       scf_loop_ri-j          3635.0   15.74          3632.2   15.71
      parlp1.bc.dens             6.0    0.03             6.0    0.03
        parlp1.gs.gp            70.3    0.30            70.3    0.30
        parlp2.bc.gq             0.0    0.00             0.0    0.00
        scf_loop_dft         15195.4   65.78         15184.7   65.67
      pardft.bc.dens             0.0    0.00             0.0    0.00
        dft_grid_con             6.2    0.03             6.2    0.03
          dft_xcmrhf         14674.2   63.52         14663.9   63.42
          dft_getval           107.5    0.47           107.4    0.46
          funct2 dst             1.3    0.01             1.2    0.01
      funct2 f2loop1            18.9    0.08            18.9    0.08
      funct2 f2loop2            47.6    0.21            47.6    0.21
          funct2 s+c            38.3    0.17            38.4    0.17
        funct2 cmf_2            34.4    0.15            34.4    0.15
          dft_mkdens          7004.8   30.32          6999.8   30.27
        dft_mgga-fun             2.2    0.01             2.2    0.01
          dft_mkfock          7558.3   32.72          7553.4   32.67
     pardft.red.fock          1361.3    5.89          1360.3    5.88
     scf_loop_energy             0.4    0.00             5.9    0.03
     scf_loop_mkfock             0.7    0.00             0.7    0.00
       scf_loop_diis          2107.6    9.12          2132.2    9.22
       scf_loop_diag          1019.8    4.41          1019.2    4.41
         diag_tritrn           357.1    1.55           357.0    1.54
          diag_rdiag           660.2    2.86           659.8    2.85
     scf_loop_modump           338.0    1.46           341.7    1.48
      scf_loop_ortho           309.2    1.34           309.0    1.34
          Scf_a_loop            16.1    0.07            16.2    0.07
         Ridft_a_scf             4.3    0.02             4.3    0.02
         a_scf_fanal             4.2    0.02             4.2    0.02
 


    ------------------------------------------------------------------------
         total  cpu-time :  6 hours 25 minutes and 23 seconds
         total wall-time :  6 hours 25 minutes and 43 seconds
    ------------------------------------------------------------------------


   ****  ridft : all done  ****


    2018-02-02 02:41:47.542 

