
 eiger (gplogin1.local) : TURBOMOLE V7.2 ( 21285 ) 30 Jun 2017 at 11:51:10
 Copyright (C) 2017 TURBOMOLE GmbH, Karlsruhe


    2017-11-20 18:35:47.673 

                                                                                
  
 HOMO-LUMO Separation
   HOMO:   240.   240 a     -0.18237272 H =     -4.96262 eV
   LUMO:   241.   241 a     -0.10937834 H =     -2.97634 eV
   Gap :                    +0.07299438 H =     +1.98628 eV
 
Number of MOs=   3940, Electrons=    480.00, Symmetry: c1   
 
   Nr.   Orbital    Occupation       Energy
  257.   257 a                     -0.021605 H =        -0.588 eV
  256.   256 a                     -0.038056 H =        -1.036 eV
  255.   255 a                     -0.038624 H =        -1.051 eV
  254.   254 a                     -0.053026 H =        -1.443 eV
  253.   253 a                     -0.053195 H =        -1.448 eV
  252.   252 a                     -0.053393 H =        -1.453 eV
  251.   251 a                     -0.055057 H =        -1.498 eV
  250.   250 a                     -0.055215 H =        -1.502 eV
  249.   249 a                     -0.056963 H =        -1.550 eV
  248.   248 a                     -0.058200 H =        -1.584 eV
  247.   247 a                     -0.058292 H =        -1.586 eV
  246.   246 a                     -0.058493 H =        -1.592 eV
  245.   245 a                     -0.058765 H =        -1.599 eV
  244.   244 a                     -0.059001 H =        -1.606 eV
  243.   243 a                     -0.075131 H =        -2.044 eV
  242.   242 a                     -0.109225 H =        -2.972 eV
  241.   241 a                     -0.109378 H =        -2.976 eV
  240.   240 a        2.000        -0.182373 H =        -4.963 eV
  239.   239 a        2.000        -0.183233 H =        -4.986 eV
  238.   238 a        2.000        -0.189577 H =        -5.159 eV
  237.   237 a        2.000        -0.189855 H =        -5.166 eV
  236.   236 a        2.000        -0.206484 H =        -5.619 eV
  235.   235 a        2.000        -0.213533 H =        -5.811 eV
  234.   234 a        2.000        -0.216160 H =        -5.882 eV
  233.   233 a        2.000        -0.216572 H =        -5.893 eV
  232.   232 a        2.000        -0.220107 H =        -5.989 eV
  231.   231 a        2.000        -0.220346 H =        -5.996 eV
  230.   230 a        2.000        -0.231041 H =        -6.287 eV
  229.   229 a        2.000        -0.231158 H =        -6.290 eV
  228.   228 a        2.000        -0.236541 H =        -6.437 eV
  227.   227 a        2.000        -0.236943 H =        -6.448 eV
  226.   226 a        2.000        -0.250610 H =        -6.819 eV
  225.   225 a        2.000        -0.253564 H =        -6.900 eV


    ------------------------------------------------------------------------
         total  cpu-time :  11.39 seconds
         total wall-time :  11.53 seconds
    ------------------------------------------------------------------------

   ****  eiger : all done  ****


    2017-11-20 18:35:59.192 

