           Doing BLAS/Lapack in the master proc. with  8 CPUs.
           SMPCPUS    set: Shared-memory Parallelization with   8 CPUs.

           SMP Parallelization Reference:
           C. van Wullen, J. Comput. Chem. 32 (2011) 1195--1201
 operating system is UNIX !

 ridft (c-5-10.gp.local) : TURBOMOLE V7.2 ( 21454 ) 4 Oct 2017 at 12:48:15
 Copyright (C) 2017 TURBOMOLE GmbH, Karlsruhe


    2018-04-28 21:05:33.454 



                                  r i d f t

                        DFT program with RI approximation 
                                for coulomb part 




                                                 
                                 References:     
                                                 
          TURBOMOLE:                             
              R. Ahlrichs, M. Baer, M. Haeser, H. Horn, and
              C. Koelmel
              Electronic structure calculations on workstation
              computers: the program system TURBOMOLE
              Chem. Phys. Lett. 162: 165 (1989)
          Density Functional:                              
              O. Treutler and R. Ahlrichs                      
              Efficient Molecular Numerical Integration Schemes
              J. Chem. Phys. 102: 346 (1995)                   
          Parallel Version:                                
              Performance of parallel TURBOMOLE for Density    
              Functional Calculations                          
              M. v. Arnim and R. Ahlrichs                      
              J. Comp. Chem. 19: 1746 (1998)                   
          RI-J Method:                                     
              Auxiliary Basis Sets to approximate Coulomb      
              Potentials                                       
              Chem. Phys. Lett. 240: 283 (1995)                
              K. Eichkorn, O. Treutler, H. Oehm, M. Haeser     
              and R. Ahlrichs                                  
              Chem. Phys. Lett. 242: 652 (1995)                
                                                           
              Auxiliary Basis Sets for Main Row Atoms and their
              Use to approximate Coulomb Potentials            
              K. Eichkorn, F. Weigend, O. Treutler and         
              R. Ahlrichs                                      
              Theo. Chem. Acc. 97: 119 (1997)                   
                                                           
              Accurate Coulomb-fitting basis sets for H to Rn 
              F. Weigend                                        
              Phys. Chem. Chem. Phys. 8: 1057 (2006)            
                                                           
          Multipole accelerated RI-J (MARI-J):             
              Fast evaluation of the Coulomb potential for     
              electron densities using multipole accelerated   
              resolution of identity approximation             
              M. Sierka, A. Hogekamp and R. Ahlrichs           
              J. Chem. Phys. 118: 9136 (2003)                  
          RI-JK Method:                                     
              A fully direct RI-HF algorithm: Implementation,
              optimised auxiliary basis sets, demonstration of
              accuracy and efficiency                         
              F. Weigend                                      
              Phys. Chem. Chem. Phys. 4: 4285 (2002)           
          Two-component HF and DFT with spin-orbit coupling:  
              Self-consistent treatment of spin-orbit         
              interactions with efficient Hartree-Fock and    
              density functional methods                      
              M. K. Armbruster, F. Weigend, C. van Wüllen and 
              W. Klopper                                      
              Phys. Chem. Chem. Phys. 10: 1748 (2008)         
          Relativistic all-electron 2c calculations           
              An efficient implementation of two-component    
              relativistic exact-decoupling methods for large 
              molecules                                       
              D. Peng, N. Middendorf, F. Weigend, M. Reiher   
              J. Chem. Phys. 138, 184105 (2013)               
                                         




              +--------------------------------------------------+
              |      general information about current run       |
              +--------------------------------------------------+

 

 DENSITY CONVERGENCE CHECK SWITCHED ON !
 SCF CONVERGENCE IF RMS(delta[D]) <     0.1000000000E-06

 TPSS meta-GGA functional
 exchange:    LDA + TPSS
 correlation: LDA (PW) + TPSS
 A DFT calculation using the RI-J approximation will be carried out.
 Allocatable memory for RI due to $ricore (MB):                  5000


              +--------------------------------------------------+
              | Atomic coordinate, charge and isotop information |
              +--------------------------------------------------+

                    atomic coordinates            atom    charge  isotop
          2.59306506    1.91330493    1.83459277    c      0.000     0
          1.79935231    3.80600206    1.95230866    h      0.000     0
          3.68009367    1.75086073    0.09584267    h      0.000     0
          3.87715505    1.60971628    3.40708639    h      0.000     0
          0.61744356   -0.14673208    1.86742503    c      0.000     0
          1.16940274   -2.36684665    2.21340080    o      0.000     0
         -1.79529433    0.65174159    1.46248724    n      0.000     0
         -2.08752672    2.49826613    1.14538599    h      0.000     0
         -3.89256069   -1.09106919    1.28530382    c      0.000     0
         -3.15462569   -2.96081536    1.69543253    h      0.000     0
         -5.35660212   -0.62621806    2.65253562    h      0.000     0
         -4.70725206   -1.09400938   -0.60459758    h      0.000     0
          5.02792916    0.87446206    9.17149562    c      6.000     0
          5.24872340    2.30010149    7.69988117    h      1.000     0
          4.86520414    1.86635346   10.96986494    h      1.000     0
          6.75153219   -0.24849240    9.22215541    h      1.000     0
          2.70683103   -0.75710388    8.68479372    c      6.000     0
          2.52812086   -2.16580779   10.18344261    h      1.000     0
          2.92683320   -1.80299988    6.92008469    h      1.000     0
          0.28318575    0.78985229    8.56139205    c      6.000     0
          0.07234840    1.88161300   10.30576734    h      1.000     0
          0.43291659    2.17467177    7.03137028    h      1.000     0
         -2.06830685   -0.81704842    8.15154844    c      6.000     0
         -2.23989769   -2.16723221    9.70380204    h      1.000     0
         -1.82678661   -1.92997944    6.43149241    h      1.000     0
         -4.46228466    0.77087239    7.98125629    c      6.000     0
         -4.33583697    2.10700511    6.41699914    h      1.000     0
         -6.13533898   -0.39323196    7.69055423    h      1.000     0
         -4.74641640    1.85975355    9.70699122    h      1.000     0
 
       center of nuclear mass  :    0.00556987   -0.01205370    5.09757071
       center of nuclear charge:    0.29679830    0.20590384    8.51393624

              +--------------------------------------------------+
              |               basis set information              |
              +--------------------------------------------------+

              we will work with the 1s 3p 5d 7f 9g ... basis set
              ...i.e. with spherical basis functions...

   type   atoms  prim   cont   basis
   ---------------------------------------------------------------------------
    c        8     50     30   cc-pVTZ   [4s3p2d1f|18s5p2d1f]
    h       19     16     14   cc-pVTZ   [3s2p1d|5s2p1d]
    o        1     50     30   cc-pVTZ   [4s3p2d1f|18s5p2d1f]
    n        1     50     30   cc-pVTZ   [4s3p2d1f|18s5p2d1f]
   ---------------------------------------------------------------------------
   total:   29    804    566
   ---------------------------------------------------------------------------

   total number of primitive shells          :   86
   total number of contracted shells         :  214
   total number of cartesian basis functions :  635
   total number of SCF-basis functions       :  566


 integral neglect threshold       :  0.52E-13
 integral storage threshold THIZE :  0.10E-04
 integral storage threshold THIME :         5

 RI-J AUXILIARY BASIS SET information:

              we will work with the 1s 3p 5d 7f 9g ... basis set
              ...i.e. with spherical basis functions...

   type   atoms  prim   cont   basis
   ---------------------------------------------------------------------------
    c        8     70     49   cc-pVTZ   [6s4p3d1f1g|12s5p4d2f1g]
    h       19     16     11   cc-pVTZ   [3s1p1d|5s2p1d]
    o        1     70     49   cc-pVTZ   [6s4p3d1f1g|12s5p4d2f1g]
    n        1     70     49   cc-pVTZ   [6s4p3d1f1g|12s5p4d2f1g]
   ---------------------------------------------------------------------------
   total:   29   1004    699
   ---------------------------------------------------------------------------

   total number of primitive shells          :   80
   total number of contracted shells         :  245
   total number of cartesian basis functions :  838
   total number of SCF-basis functions       :  699


 symmetry group of the molecule :   c1 

 the group has the following generators :
   c1(z)

    1 symmetry operations found

 there are 1 real representations :   a   

 maximum number of shells which are related by symmetry :  1


    mo occupation :
   irrep   mo's   occupied
    a      566       21
 
 number of basis functions   :                    566
 number of occupied orbitals :                     21
 
  
           ------------------
           density functional
           ------------------
 Dummy atoms with grid-point found.
 DFT quadrature threshold dgrenze tightened by factor 1/10.

 TPSS meta-GGA functional
 exchange:    LDA + TPSS
 correlation: LDA (PW) + TPSS
 Dummy atoms with grid-point found.
 DFT quadrature threshold dgrenze tightened by factor 1/10.

 Dummy atoms with grid-point found.
 DFT quadrature threshold dgrenze tightened by factor 1/10.


 iterations will be done with small grid
  
 spherical integration : Lebedev's spherical grid
 spherical gridsize    :                     5
    i.e. gridpoints    :                   590
 value for diffuse not defined
 radial integration    : Chebyshev 2nd kind (scaling 3)
 radial gridsize       :                     8
 integration cells     :                    29
 partition function    : becke
 partition sharpness   :                     3
  
 found dummy atom(s) with basis: included in dft

 biggest AO integral is expected to be     4.866064444
  
           ------------------------
               RI-J - INFORMATION
           ------------------------
 Contributions to RI integral batches: 
  neglected integral batches:                  4230
  direct contribution:                            0
  memory contribution:                 18775
 Memory core needed for (P|Q) and Cholesky      4 MByte
 Memory core minimum needed except of (P|Q)     2 MByte
 Total minimum memory core needed (sum)         6 MByte
  
 ****************************************
 Memory allocated for RI-J  1003 MByte
 ****************************************
                                            

          ------------------------
          nuclear repulsion energy  :   185.676879951    
          ------------------------


         -----------------
         -S,T+V- integrals
         -----------------

 1e-integrals will be neglected if expon. factor < 0.526293E-14
 Difference densities >>NOT<< switched on in parallel ridft!

 DIIS switched on: error vector is FDS-SDF
 Max. Iterations for DIIS is     :   4
 DIIS matrix (see manual) 
    Scaling factor of diagonals  :  1.200
    threshold for scaling factor :  0.000

 scf convergence criterion : increment of total energy < .1000000D-08
                  and increment of one-electron energy < .1000000D-05

  MOs are in ASCII format !


 automatic virtual orbital shift switched on 
      shift if e(lumo)-e(homo) < 0.10000000    


 reading orbital data $scfmo  from file mos
 orbital characterization : expanded
 mo provided and orthogonalized by Cholesky decomposition

 DSCF restart information will be dumped onto file mos


 Starting SCF iterations

          Overall gridpoints after grid construction =        147452

 ITERATION  ENERGY          1e-ENERGY        2e-ENERGY     RMS[dD(SAO)]   TOL
   1  -197.17814970062    -623.46481046     240.60978081    0.000D+00 0.525D-13
                            Exc = -30.6219529243     Coul =  271.231733736    
                              N = 42.000068683    
                            current damping = 0.700
 
          max. resid. norm for Fia-block=  2.423D-01 for orbital      7a         
          max. resid. fock norm         =  1.238D+01 for orbital    525a         

 ITERATION  ENERGY          1e-ENERGY        2e-ENERGY     RMS[dD(SAO)]   TOL
   2  -197.71320390809    -629.00150108     245.61141722    0.146D-02 0.525D-13
                            Exc = -31.2651687199     Coul =  276.876585938    
                              N = 42.000049610    
                            current damping = 0.650
 
          Norm of current diis error:  1.8341    
          max. resid. norm for Fia-block=  1.061D-01 for orbital      6a         
          max. resid. fock norm         =  1.200D-01 for orbital      6a         

 ITERATION  ENERGY          1e-ENERGY        2e-ENERGY     RMS[dD(SAO)]   TOL
   3  -197.83026224012    -630.14229235     246.63515016    0.884D-03 0.525D-13
                            Exc = -31.4901409550     Coul =  278.125291115    
                              N = 42.000037748    
                            current damping = 0.550
 
          Norm of current diis error: 0.88966    
          max. resid. norm for Fia-block=  4.762D-02 for orbital     10a         
          max. resid. fock norm         =  5.210D-02 for orbital      6a         

 ITERATION  ENERGY          1e-ENERGY        2e-ENERGY     RMS[dD(SAO)]   TOL
   4  -197.86455401365    -631.32166145     247.78022748    0.476D-03 0.525D-13
                            Exc = -31.6616947647     Coul =  279.441922247    
                              N = 42.000028756    
                            current damping = 0.450
 
          Norm of current diis error: 0.32594    
          max. resid. norm for Fia-block=  1.807D-02 for orbital     10a         
          max. resid. fock norm         =  1.982D-02 for orbital      6a         

 ITERATION  ENERGY          1e-ENERGY        2e-ENERGY     RMS[dD(SAO)]   TOL
   5  -197.86999853483    -631.55432526     248.00744678    0.238D-03 0.525D-13
                            Exc = -31.7188348647     Coul =  279.726281640    
                              N = 42.000025122    
                            current damping = 0.300
 
          Norm of current diis error: 0.11629    
          max. resid. norm for Fia-block=  6.834D-03 for orbital     10a         
          max. resid. fock norm         =  6.929D-03 for orbital     10a         
          mo-orthogonalization: Cholesky decomposition

 ITERATION  ENERGY          1e-ENERGY        2e-ENERGY     RMS[dD(SAO)]   TOL
   6  -197.87071507586    -631.80224086     248.25464583    0.962D-04 0.525D-13
                            Exc = -31.7502657830     Coul =  280.004911617    
                              N = 42.000023718    
                            current damping = 0.150
 
          Norm of current diis error: 0.31813E-01
          max. resid. norm for Fia-block=  1.606D-03 for orbital     20a         
          max. resid. fock norm         =  2.567D-03 for orbital     71a         

 ITERATION  ENERGY          1e-ENERGY        2e-ENERGY     RMS[dD(SAO)]   TOL
   7  -197.87075237662    -631.73690180     248.18926947    0.385D-04 0.525D-13
                            Exc = -31.7502405855     Coul =  279.939510053    
                              N = 42.000023452    
                            current damping = 0.200
 
          Norm of current diis error: 0.20389E-01
          max. resid. norm for Fia-block=  5.916D-04 for orbital     14a         
          max. resid. fock norm         =  9.272D-04 for orbital     21a         

 ITERATION  ENERGY          1e-ENERGY        2e-ENERGY     RMS[dD(SAO)]   TOL
   8  -197.87076617248    -631.77324586     248.22559973    0.866D-05 0.525D-13
                            Exc = -31.7528002898     Coul =  279.978400022    
                              N = 42.000023435    
                            current damping = 0.250
 
          Norm of current diis error: 0.25313E-02
          max. resid. norm for Fia-block=  1.276D-04 for orbital     15a         
          max. resid. fock norm         =  1.497D-04 for orbital     14a         

 ITERATION  ENERGY          1e-ENERGY        2e-ENERGY     RMS[dD(SAO)]   TOL
   9  -197.87076631560    -631.78117478     248.23352852    0.171D-05 0.525D-13
                            Exc = -31.7535337267     Coul =  279.987062245    
                              N = 42.000023398    
                            current damping = 0.100
 
          Norm of current diis error: 0.16308E-02
          max. resid. norm for Fia-block=  4.490D-05 for orbital     15a         
          max. resid. fock norm         =  5.365D-05 for orbital     14a         

 ITERATION  ENERGY          1e-ENERGY        2e-ENERGY     RMS[dD(SAO)]   TOL
  10  -197.87076640575    -631.77838268     248.23073632    0.723D-06 0.525D-13
                            Exc = -31.7533033965     Coul =  279.984039720    
                              N = 42.000023411    
                            current damping = 0.150
 
          Norm of current diis error: 0.55269E-04
          max. resid. norm for Fia-block=  2.763D-06 for orbital     21a         
          max. resid. fock norm         =  4.078D-06 for orbital     10a         
          mo-orthogonalization: Cholesky decomposition

 DENSITY CONVERGED !


 ITERATION  ENERGY          1e-ENERGY        2e-ENERGY     RMS[dD(SAO)]   TOL
  11  -197.87076640586    -631.77833725     248.23069090    0.673D-07 0.525D-13
                            Exc = -31.7533040054     Coul =  279.983994901    
                              N = 42.000023411    
                            current damping = 0.050
 
          Norm of current diis error: 0.28181E-04
          max. resid. norm for Fia-block=  1.279D-06 for orbital     21a         
          max. resid. fock norm         =  1.971D-06 for orbital     10a         

 DENSITY CONVERGED !


 ITERATION  ENERGY          1e-ENERGY        2e-ENERGY     RMS[dD(SAO)]   TOL
  12  -197.87076640587    -631.77831771     248.23067135    0.224D-07 0.525D-13
                            Exc = -31.7533025723     Coul =  279.983973925    
                              N = 42.000023411    
                            current damping = 0.050
 
          Norm of current diis error: 0.17863E-04
          max. resid. norm for Fia-block=  5.612D-07 for orbital     21a         
          max. resid. fock norm         =  7.786D-07 for orbital      9a         

 DENSITY CONVERGED !


 ITERATION  ENERGY          1e-ENERGY        2e-ENERGY     RMS[dD(SAO)]   TOL
  13  -197.87076640588    -631.77834727     248.23070092    0.903D-08 0.525D-13
                            Exc = -31.7533044237     Coul =  279.984005342    
                              N = 42.000023411    
                            current damping = 0.100
 
          Norm of current diis error: 0.36303E-05
          max. resid. norm for Fia-block=  1.107D-07 for orbital     19a         
          max. resid. fock norm         =  1.525D-07 for orbital     21a         

 ENERGY & DENSITY CONVERGED !

          Overall gridpoints after grid construction =        423132

 ITERATION  ENERGY          1e-ENERGY        2e-ENERGY     RMS[dD(SAO)]   TOL
  14  -197.87065550922    -631.77833739     248.23080193    0.277D-08 0.525D-13
                            Exc = -31.7531928586     Coul =  279.983994790    
                              N = 42.000021471    
                            current damping = 0.150
 
          Norm of current diis error: 0.10912E-05
          max. resid. norm for Fia-block=  3.885D-08 for orbital     15a         
          max. resid. fock norm         =  4.426D-08 for orbital    265a         

 End of SCF iterations

   convergence criteria satisfied after    14 iterations


                  ------------------------------------------ 
                 |  total energy      =   -197.87065550922  |
                  ------------------------------------------ 
                 :  kinetic energy    =    196.71742752011  :
                 :  potential energy  =   -394.58808302933  :
                 :  virial theorem    =      1.99417180892  :
                 :  wavefunction norm =      1.00000000000  :
                  .......................................... 


 <geterg> : there is no data group $energy 


 <skperg> : $end is missing 


 orbitals $scfmo  will be written to file mos

    irrep                 17a         18a         19a         20a         21a   
 eigenvalues H         -0.31535    -0.29896    -0.28995    -0.28571    -0.27667
            eV          -8.5813     -8.1352     -7.8900     -7.7746     -7.5287
 occupation              2.0000      2.0000      2.0000      2.0000      2.0000 

    irrep                 22a         23a         24a         25a         26a   
 eigenvalues H          0.00921     0.03550     0.04688     0.05249     0.07151
            eV           0.2506      0.9660      1.2756      1.4283      1.9459
 
 
 
 
 ==============================================================================
                           electrostatic moments
 ==============================================================================

 reference point for electrostatic moments:    0.00000   0.00000   0.00000

 
              nuc           elec       ->  total
 ------------------------------------------------------------------------------
                          charge      
 ------------------------------------------------------------------------------
          42.000000     -42.000000      -0.000000
 
 ------------------------------------------------------------------------------
                       dipole moment  
 ------------------------------------------------------------------------------
   x      12.465529     -12.463905       0.001624
   y       8.647961      -8.680880      -0.032919
   z     357.585322    -357.582157       0.003165
 
   | dipole moment | =     0.0331 a.u. =     0.0842 debye 
 
 ------------------------------------------------------------------------------
                     quadrupole moment
 ------------------------------------------------------------------------------
  xx     540.539986    -567.442777     -26.902791
  yy      60.862604     -87.316901     -26.454297
  zz    3079.915002   -3105.564362     -25.649360
  xy       7.556681      -7.565935      -0.009253
  xz     168.703174    -168.865342      -0.162167
  yz      77.345001     -77.684615      -0.339614
 
     1/3  trace=     -26.335483
     anisotropy=       1.278767
 
 ==============================================================================
 


    ------------------------------------------------------------------------
         total  cpu-time : 14 minutes and 44 seconds
         total wall-time :  6 minutes and 50 seconds
    ------------------------------------------------------------------------

   ****  ridft : all done  ****


    2018-04-28 21:12:23.001 

