Using OpenMPI from /sopt/mpi/openmpi-1.8.6/intel_15.0.3/bin/mpiexec
STARTING ridft ON 8 PROCESSORS!
RUNNING PROGRAM /beegfs/modfac/apps/TURBOMOLE/7.0_intel/bin/em64t-unknown-linux-gnu_mpi/ridft_mpi.
PLEASE WAIT UNTIL ridft HAS FINISHED.
Look for the output in slave1.output.
  this is node-proc. number 1 running on node c-8-40.local
  the total number of node-proc. spawned is            7
  parallel platform: MPP, or cluster with fast interconnect

 ridft (c-8-40.local) : TURBOMOLE V7.0( ) 6 Jul 2015 at 19:34:44
 Copyright (C) 2015 TURBOMOLE GmbH, Karlsruhe


    2017-11-09 01:53:24.489 



                                  r i d f t

                        DFT program with RI approximation 
                                for coulomb part 




                                                 
                                 References:     
                                                 
          TURBOMOLE:                             
              R. Ahlrichs, M. Baer, M. Haeser, H. Horn, and
              C. Koelmel
              Electronic structure calculations on workstation
              computers: the program system TURBOMOLE
              Chem. Phys. Lett. 162: 165 (1989)
          Density Functional:                              
              O. Treutler and R. Ahlrichs                      
              Efficient Molecular Numerical Integration Schemes
              J. Chem. Phys. 102: 346 (1995)                   
          Parallel Version:                                
              Performance of parallel TURBOMOLE for Density    
              Functional Calculations                          
              M. v. Arnim and R. Ahlrichs                      
              J. Comp. Chem. 19: 1746 (1998)                   
          RI-J Method:                                     
              Auxiliary Basis Sets to approximate Coulomb      
              Potentials                                       
              Chem. Phys. Lett. 240: 283 (1995)                
              K. Eichkorn, O. Treutler, H. Oehm, M. Haeser     
              and R. Ahlrichs                                  
              Chem. Phys. Lett. 242: 652 (1995)                
                                                           
              Auxiliary Basis Sets for Main Row Atoms and their
              Use to approximate Coulomb Potentials            
              K. Eichkorn, F. Weigend, O. Treutler and         
              R. Ahlrichs                                      
              Theo. Chem. Acc. 97: 119 (1997)                   
                                                           
              Accurate Coulomb-fitting basis sets for H to Rn 
              F. Weigend                                        
              Phys. Chem. Chem. Phys. 8: 1057 (2006)            
                                                           
          Multipole accelerated RI-J (MARI-J):             
              Fast evaluation of the Coulomb potential for     
              electron densities using multipole accelerated   
              resolution of identity approximation             
              M. Sierka, A. Hogekamp and R. Ahlrichs           
              J. Chem. Phys. 118: 9136 (2003)                  
          RI-JK Method:                                     
              A fully direct RI-HF algorithm: Implementation,
              optimised auxiliary basis sets, demonstration of
              accuracy and efficiency                         
              F. Weigend                                      
              Phys. Chem. Chem. Phys. 4: 4285 (2002)           
          Two-component HF and DFT with spin-orbit coupling:  
              Self-consistent treatment of spin-orbit         
              interactions with efficient Hartree-Fock and    
              density functional methods                      
              M. K. Armbruster, F. Weigend, C. van Wüllen and 
              W. Klopper                                      
              Phys. Chem. Chem. Phys. 10: 1748 (2008)         
          Relativistic all-electron 2c calculations           
              An efficient implementation of two-component    
              relativistic exact-decoupling methods for large 
              molecules                                       
              D. Peng, N. Middendorf, F. Weigend, M. Reiher   
              J. Chem. Phys. 138, 184105 (2013)               
                                         


 


              +--------------------------------------------------+
              |      general information about current run       |
              +--------------------------------------------------+

 

 SCF run will be profiled !


 DENSITY CONVERGENCE CHECK SWITCHED ON !
 SCF CONVERGENCE IF RMS(delta[D]) <     0.1000000000E-06

 PBE functional
 exchange:    LDA + PBE
 correlation: LDA (PW) + PBE
 A DFT calculation using the RI-J approximation will be carried out.
 Allocatable memory for RI due to $ricore (MB):       13000


              +--------------------------------------------------+
              | Atomic coordinate, charge and isotop information |
              +--------------------------------------------------+

                    atomic coordinates            atom    charge  isotop
          1.47400130   12.97840855   10.46321877    c      0.000     0
         -1.42194711  -12.95236318   10.50711918    c      0.000     0
         -3.51827852   -8.71488287   10.67272269    c      0.000     0
          1.22919144   -9.05957629   10.95273739    c      0.000     0
          3.57308963    8.74214504   10.61880143    c      0.000     0
         -1.17165289    9.08563621   10.94293406    c      0.000     0
         -1.17288083  -10.16974409    9.71264374    c      0.000     0
          1.21820004   10.19389350    9.67760254    c      0.000     0
         -0.01577677   -0.00081710   -0.61100156    c      0.000     0
          0.15429197    4.37565313   -0.69054108    c      0.000     0
         -0.19402613   -4.37709458   -0.67856040    c      0.000     0
         -0.55929318   -7.03123591    3.21036313    c      0.000     0
          0.54805534    7.03986009    3.18853604    c      0.000     0
         -0.31877961   -4.55516328    2.04416646    c      0.000     0
          0.30345127    4.56044964    2.03044875    c      0.000     0
          0.58076877    9.15982629    1.54879573    c      0.000     0
         -0.61478594   -9.15470964    1.57576987    c      0.000     0
          0.99711247    9.87365787    6.81274844    c      0.000     0
         -0.97953426   -9.85618032    6.84504121    c      0.000     0
         -0.00403023    0.00250863    2.11154219    c      0.000     0
         -0.74392528   -7.43475782    5.81861435    c      0.000     0
          0.75850110    7.44933785    5.79386139    c      0.000     0
          0.34070212    8.73142991   -1.10144086    c      0.000     0
         -0.39861827   -8.73309227   -1.07762389    c      0.000     0
         -0.17910655   -2.31709543    3.38716175    c      0.000     0
          0.18085094    2.32528402    3.37988952    c      0.000     0
          1.02479054   11.95094915    5.14064543    c      0.000     0
         -1.03036373  -11.93691487    5.17780973    c      0.000     0
          0.81990586   11.60622568    2.55789493    c      0.000     0
         -0.85134166  -11.59820735    2.59240284    c      0.000     0
          0.02193858    2.18166975   -1.94927934    n      0.000     0
         -0.06672775   -2.18648606   -1.94364909    n      0.000     0
          0.13355147    6.51560640   -2.18085243    n      0.000     0
         -0.19352271   -6.52056992   -2.16406656    n      0.000     0
         -0.71180296   -5.82922647    7.09345346    h      0.000     0
          0.74579439    5.84626805    7.07218421    h      0.000     0
          1.20982307   13.85044838    5.88201126    h      0.000     0
         -1.21256395  -13.83432520    5.92511799    h      0.000     0
         -0.20128702   -2.31305349    5.43959803    h      0.000     0
          0.22184874    2.32620338    5.43205972    h      0.000     0
          0.84152149   13.22104769    1.28896670    h      0.000     0
         -0.89126969  -13.21558200    1.32720077    h      0.000     0
         -0.39306323  -10.36850454   -2.33336202    h      0.000     0
          0.31715197   10.36393541   -2.36071770    h      0.000     0
         -1.55225091  -13.06116624   12.56760513    h      0.000     0
          1.62652034   13.09185297   12.52191892    h      0.000     0
         -1.39328016    7.07229742   10.52134693    h      0.000     0
          3.44669246    6.72205728   10.19043378    h      0.000     0
         -3.39522541   -6.69602570   10.23763233    h      0.000     0
          1.44796069   -7.04728951   10.52466264    h      0.000     0
         -3.12774186  -13.82428811    9.72380578    h      0.000     0
          0.22085682  -14.06739060    9.92284383    h      0.000     0
          3.17055302   13.84961217    9.65934363    h      0.000     0
         -0.17576722   14.09116736    9.89447375    h      0.000     0
          5.29559352    9.48212419    9.74469141    h      0.000     0
         -2.87285749   10.07196214   10.30104757    h      0.000     0
         -5.24932510   -9.45656504    9.81712783    h      0.000     0
          2.92380070  -10.04822525   10.29713433    h      0.000     0
         -3.66821506   -8.91595502   12.72633173    h      0.000     0
          1.10891264   -9.26470625   13.00791869    h      0.000     0
         -1.03209869    9.29552243   12.99640534    h      0.000     0
          3.74274055    8.94867302   12.67033744    h      0.000     0
         -0.84814141    4.47218903   -8.79567114    c      6.000     0
          0.81896534   -4.49550028   -8.78139520    c      6.000     0
         -1.49614268    7.45629374  -11.46780436    c      6.000     0
          1.48658442   -7.48375389  -11.44404956    c      6.000     0
         -1.49589040    8.57397075   -9.03489232    c      6.000     0
          1.46332170   -8.59858308   -9.00995191    c      6.000     0
         -1.09024651    6.59284858   -7.35621345    n      7.000     0
          1.04432085   -6.61494436   -7.33756960    n      7.000     0
         -0.40861417    2.14786198   -7.64611350    n      7.000     0
          0.37367406   -2.16880994   -7.63903931    n      7.000     0
         -0.01304932   -0.01188409   -8.97979585    c      6.000     0
          2.21135033  -12.64119086  -10.79833241    c      6.000     0
         -2.23118529   12.61383352  -10.83481508    c      6.000     0
         -2.23663621   11.52605367  -13.25999341    c      6.000     0
          2.23878575  -11.55643552  -13.22470920    c      6.000     0
          1.88149259   -8.97457527  -13.58563518    c      6.000     0
         -1.87400759    8.94403752  -13.61459920    c      6.000     0
         -1.86355778   11.15545835   -8.67229111    c      6.000     0
          1.82519046  -11.18001115   -8.64096946    c      6.000     0
         -0.00471790   -0.01434527  -11.46794496    n      7.000     0
         -1.08398585    4.86113095  -11.25197458    n      7.000     0
          1.07543501   -4.88799923  -11.23503527    n      7.000     0
         -0.36777719    1.70183559  -12.33223067    h      1.000     0
          0.36616561   -1.73163786  -12.32642127    h      1.000     0
          0.23428446   -2.11911298   -5.68423120    h      1.000     0
         -0.27995443    2.10225325   -5.69047297    h      1.000     0
         -0.72184931    6.65146467   -5.42799265    h      1.000     0
          0.66821320   -6.66976078   -5.41114839    h      1.000     0
         -2.53368812   12.73388196  -14.89121729    h      1.000     0
          2.54856119  -12.76661878  -14.85179836    h      1.000     0
          2.50261420  -14.66226770  -10.60136625    h      1.000     0
         -2.52416371   14.63517378  -10.64298104    h      1.000     0
          1.90756117   -8.13960167  -15.45831900    h      1.000     0
         -1.88305295    8.10667096  -15.48639618    h      1.000     0
          1.82476452  -12.02599826   -6.77114725    h      1.000     0
         -1.88145708   12.00355345   -6.80351127    h      1.000     0
 
       center of nuclear mass  :   -0.00506648   -0.00190763   -1.53498126
       center of nuclear charge:   -0.01043294   -0.01287942  -10.13585556

              +--------------------------------------------------+
              |               basis set information              |
              +--------------------------------------------------+

              we will work with the 1s 3p 5d 7f 9g ... basis set
              ...i.e. with spherical basis functions...

   type   atoms  prim   cont   basis
   ---------------------------------------------------------------------------
    c       45     50     30   cc-pVTZ   [4s3p2d1f|18s5p2d1f]
    n       11     50     30   cc-pVTZ   [4s3p2d1f|18s5p2d1f]
    h       42     16     14   cc-pVTZ   [3s2p1d|5s2p1d]
   ---------------------------------------------------------------------------
   total:   98   3472   2268
   ---------------------------------------------------------------------------

   total number of primitive shells          :   60
   total number of contracted shells         :  812
   total number of cartesian basis functions : 2590
   total number of SCF-basis functions       : 2268


 integral neglect threshold       :  0.13E-13
 integral storage threshold THIZE :  0.10E-04
 integral storage threshold THIME :         5

 RI-J AUXILIARY BASIS SET information:

              we will work with the 1s 3p 5d 7f 9g ... basis set
              ...i.e. with spherical basis functions...

   type   atoms  prim   cont   basis
   ---------------------------------------------------------------------------
    c       45     70     49   cc-pVTZ   [6s4p3d1f1g|12s5p4d2f1g]
    n       11     70     49   cc-pVTZ   [6s4p3d1f1g|12s5p4d2f1g]
    h       42     16     11   cc-pVTZ   [3s1p1d|5s2p1d]
   ---------------------------------------------------------------------------
   total:   98   4592   3206
   ---------------------------------------------------------------------------

   total number of primitive shells          :   56
   total number of contracted shells         : 1050
   total number of cartesian basis functions : 3920
   total number of SCF-basis functions       : 3206


 symmetry group of the molecule :   c1 

 the group has the following generators :
   c1(z)

    1 symmetry operations found

 there are 1 real representations :   a   

 maximum number of shells which are related by symmetry :  1


    mo occupation :
   irrep   mo's   occupied
    a     2268       76
 
 number of basis functions   :         2268
 number of occupied orbitals :           76
 
  
           ------------------
           density functional
           ------------------
 Dummy atoms with grid-point found.
 DFT quadrature threshold dgrenze tightened by factor 1/10.

 PBE functional
 exchange:    LDA + PBE
 correlation: LDA (PW) + PBE
 Dummy atoms with grid-point found.
 DFT quadrature threshold dgrenze tightened by factor 1/10.

 Dummy atoms with grid-point found.
 DFT quadrature threshold dgrenze tightened by factor 1/10.

 grinp -> nfun, dfgga, dfhybrid 
           6 T F
 iterations will be done with small grid
  
 spherical integration : Lebedev's spherical grid
 spherical gridsize    :           5
    i.e. gridpoints    :         590
 value for diffuse not defined
 radial integration    : Chebyshev 2nd kind (scaling 3)
 radial gridsize       :           8
 integration cells     :          98
 partition function    : becke
 partition sharpness   :           3
  
 found dummy atom(s) with basis: included in dft

 <rddim> : input of entry tasksize
           from data group '$pardft' failed !

               Default values taken

 <rddim> : input of entry memdiv
           from data group '$pardft' failed !

               Default values taken
  RIDFT: memory allocation for DFT gridpoints
  MEMORY is divided by 1 as DEFAULT
 Each node can hold at most  the            1 -th part
 of the gridpoints    

 biggest AO integral is expected to be     4.229423036
  
           ------------------------
               RI-J - INFORMATION
           ------------------------
 
 
 **************************************************
 *      MEMORY ALLOCATION FOR PARALLEL RI-DFT     *
 **************************************************
 
 
MEMORY FOR (MU NU/ ALPHA), SEQUENTIAL RUN              12920 MByte
 
            DIFFERENCE IN MEMORY NEED:       DIAG./SLAVE  
 
      TOTAL DIFFERENCE :                    285 MByte
 
      difference in xcore:                   80 MByte
      difference in fatmat:                  76 MByte
      getcor calls skipped by slaves:       130 MByte
 
 
           Integral memory available for diagonal.     12920 MByte
 
           Integral memory available for slave             0 MByte
 
         MEMORY FOR (MU NU/ ALPHA) ON DIAGONALIZER     12920 MByte
 
         MEMORY FOR (MU NU/ ALPHA) ON ONE SLAVE            0 MByte
 
         TOTAL MEMORY FOR (MU NU/ ALPHA),ALL NODES     12920 MByte
 
 Contributions to RI integral batches: 
  neglected integral batches:      225544
  direct contribution:              42104
  memory contribution:       62430
 Memory core needed for (P|Q) and Cholesky     79 MByte
 Memory core minimum needed except of (P|Q)     5 MByte
 Total minimum memory core needed (sum)        83 MByte
     number of direct tasks:         140
  
 ****************************************
 Memory allocated for RI-J 13003 MByte
 ****************************************
                                            

          ------------------------
          nuclear repulsion energy  :   1595.54607266    
          ------------------------

 
          -----------------
          -S integrals
          -----------------

 1e-integrals will be neglected if expon. factor < 0.129033E-14
 
          -----------------
          -T+V integrals
          -----------------

 1e-integrals will be neglected if expon. factor < 0.129033E-14
 Difference densities >>NOT<< switched on in parallel ridft!

 automatic virtual orbital shift switched on 
      shift if e(lumo)-e(homo) < 0.10000000    


 DIIS switched on: error vector is FDS-SDF
 Max. Iterations for DIIS is     :   4
 DIIS matrix (see manual) 
    Scaling factor of diagonals  :  1.200
    threshold for scaling factor :  0.000

 scf convergence criterion : increment of total energy < .1000000D-08
                  and increment of one-electron energy < .1000000D-05


 <geterg> : there is no data group $energy 

  MOs are in ASCII format !


 reading orbital data $scfmo  from file mos . 

 orbital characterization : expanded
 
 mo provided and orthogonalized by Cholesky decomposition

 DSCF restart information will be dumped onto file mos


 Starting SCF iterations


 ITERATION  ENERGY          1e-ENERGY        2e-ENERGY     RMS[dD(SAO)]   TOL
   1  -958.77501966822    -4418.6208271     1864.2997347    0.000D+00 0.129D-13
                            Exc = -131.544227000     Coul =  1995.84396172    
                              N = 151.99964709    
                            current damping = 0.700
 
          max. resid. norm for Fia-block=  2.995D-01 for orbital      2a         
          max. resid. fock norm         =  1.353D+01 for orbital   2177a         

 ITERATION  ENERGY          1e-ENERGY        2e-ENERGY     RMS[dD(SAO)]   TOL
   2  -961.64561455989    -4441.9129099     1884.7212226    0.118D-02 0.129D-13
                            Exc = -132.810523966     Coul =  2017.53174661    
                              N = 151.99974626    
                            current damping = 0.650
 
          Norm of current diis error:  3.9230    
          max. resid. norm for Fia-block=  1.341D-01 for orbital      5a         
          max. resid. fock norm         =  2.687D-01 for orbital   2200a         

 ITERATION  ENERGY          1e-ENERGY        2e-ENERGY     RMS[dD(SAO)]   TOL
   3  -962.12673919044    -4448.4483888     1890.7755769    0.567D-03 0.129D-13
                            Exc = -133.380442166     Coul =  2024.15601908    
                              N = 151.99979405    
                            current damping = 0.550
 
          Norm of current diis error:  1.9444    
          max. resid. norm for Fia-block=  5.746D-02 for orbital     25a         
          max. resid. fock norm         =  6.770D-02 for orbital     92a         

 ITERATION  ENERGY          1e-ENERGY        2e-ENERGY     RMS[dD(SAO)]   TOL
   4  -962.27989497722    -4451.7659618     1893.9399942    0.395D-03 0.129D-13
                            Exc = -133.534884015     Coul =  2027.47487819    
                              N = 151.99982705    
                            current damping = 0.450
 
          Norm of current diis error: 0.78565    
          max. resid. norm for Fia-block=  2.956D-02 for orbital     28a         
          max. resid. fock norm         =  5.235D-02 for orbital   2227a         

 ITERATION  ENERGY          1e-ENERGY        2e-ENERGY     RMS[dD(SAO)]   TOL
   5  -962.29810922608    -4454.0282501     1896.1840682    0.189D-03 0.129D-13
                            Exc = -133.711723906     Coul =  2029.89579208    
                              N = 151.99984211    
                            current damping = 0.350
 
          Norm of current diis error: 0.53185    
          max. resid. norm for Fia-block=  1.522D-02 for orbital     68a         
          max. resid. fock norm         =  2.041D-02 for orbital     28a         
          mo-orthogonalization: Cholesky decomposition

 ITERATION  ENERGY          1e-ENERGY        2e-ENERGY     RMS[dD(SAO)]   TOL
   6  -962.30943554909    -4454.1020840     1896.2465758    0.151D-03 0.129D-13
                            Exc = -133.724303727     Coul =  2029.97087950    
                              N = 151.99984772    
                            current damping = 0.200
 
          Norm of current diis error: 0.21809    
          max. resid. norm for Fia-block=  4.827D-03 for orbital     68a         
          max. resid. fock norm         =  8.965D-03 for orbital     67a         

 ITERATION  ENERGY          1e-ENERGY        2e-ENERGY     RMS[dD(SAO)]   TOL
   7  -962.31067448729    -4454.1833876     1896.3266405    0.464D-04 0.129D-13
                            Exc = -133.713378575     Coul =  2030.04001905    
                              N = 151.99984851    
                            current damping = 0.050
 
          Norm of current diis error: 0.13689    
          max. resid. norm for Fia-block=  2.470D-03 for orbital     75a         
          max. resid. fock norm         =  4.248D-03 for orbital   2225a         

 ITERATION  ENERGY          1e-ENERGY        2e-ENERGY     RMS[dD(SAO)]   TOL
   8  -962.31126377132    -4454.2284302     1896.3710937    0.221D-04 0.129D-13
                            Exc = -133.726745495     Coul =  2030.09783921    
                              N = 151.99984905    
                            current damping = 0.050
 
          Norm of current diis error: 0.62635E-01
          max. resid. norm for Fia-block=  1.532D-03 for orbital     75a         
          max. resid. fock norm         =  2.453D-03 for orbital   2225a         

 ITERATION  ENERGY          1e-ENERGY        2e-ENERGY     RMS[dD(SAO)]   TOL
   9  -962.31135732145    -4454.3109798     1896.4535498    0.110D-04 0.129D-13
                            Exc = -133.732146552     Coul =  2030.18569638    
                              N = 151.99984932    
                            current damping = 0.050
 
          Norm of current diis error: 0.40908E-01
          max. resid. norm for Fia-block=  8.200D-04 for orbital     75a         
          max. resid. fock norm         =  1.261D-03 for orbital   2225a         

 ITERATION  ENERGY          1e-ENERGY        2e-ENERGY     RMS[dD(SAO)]   TOL
  10  -962.31141380156    -4454.2483212     1896.3908347    0.657D-05 0.129D-13
                            Exc = -133.725952581     Coul =  2030.11678732    
                              N = 151.99984914    
                            current damping = 0.100
 
          Norm of current diis error: 0.16913E-01
          max. resid. norm for Fia-block=  3.661D-04 for orbital     72a         
          max. resid. fock norm         =  5.963D-04 for orbital   2227a         
          mo-orthogonalization: Cholesky decomposition

 ITERATION  ENERGY          1e-ENERGY        2e-ENERGY     RMS[dD(SAO)]   TOL
  11  -962.31142230024    -4454.2475067     1896.3900117    0.337D-05 0.129D-13
                            Exc = -133.726578716     Coul =  2030.11659043    
                              N = 151.99984906    
                            current damping = 0.050
 
          Norm of current diis error: 0.86139E-02
          max. resid. norm for Fia-block=  1.913D-04 for orbital     68a         
          max. resid. fock norm         =  3.052D-04 for orbital     28a         

 ITERATION  ENERGY          1e-ENERGY        2e-ENERGY     RMS[dD(SAO)]   TOL
  12  -962.31142425784    -4454.2549142     1896.3974172    0.180D-05 0.129D-13
                            Exc = -133.727141990     Coul =  2030.12455923    
                              N = 151.99984915    
                            current damping = 0.100
 
          Norm of current diis error: 0.52489E-02
          max. resid. norm for Fia-block=  1.083D-04 for orbital     68a         
          max. resid. fock norm         =  1.714D-04 for orbital     28a         

 ITERATION  ENERGY          1e-ENERGY        2e-ENERGY     RMS[dD(SAO)]   TOL
  13  -962.31142524509    -4454.2571332     1896.3996353    0.836D-06 0.129D-13
                            Exc = -133.727175519     Coul =  2030.12681085    
                              N = 151.99984914    
                            current damping = 0.050
 
          Norm of current diis error: 0.18325E-02
          max. resid. norm for Fia-block=  3.293D-05 for orbital     75a         
          max. resid. fock norm         =  5.917D-05 for orbital     67a         

 ITERATION  ENERGY          1e-ENERGY        2e-ENERGY     RMS[dD(SAO)]   TOL
  14  -962.31142532852    -4454.2533013     1896.3958033    0.346D-06 0.129D-13
                            Exc = -133.726898417     Coul =  2030.12270172    
                              N = 151.99984912    
                            current damping = 0.100
 
          Norm of current diis error: 0.10989E-02
          max. resid. norm for Fia-block=  2.110D-05 for orbital     75a         
          max. resid. fock norm         =  3.530D-05 for orbital   2226a         

 ITERATION  ENERGY          1e-ENERGY        2e-ENERGY     RMS[dD(SAO)]   TOL
  15  -962.31142536956    -4454.2536191     1896.3961211    0.178D-06 0.129D-13
                            Exc = -133.726990683     Coul =  2030.12311180    
                              N = 151.99984913    
                            current damping = 0.150
 
          Norm of current diis error: 0.44407E-03
          max. resid. norm for Fia-block=  9.608D-06 for orbital     75a         
          max. resid. fock norm         =  1.598D-05 for orbital   2225a         
          mo-orthogonalization: Cholesky decomposition

 DENSITY CONVERGED !


 ITERATION  ENERGY          1e-ENERGY        2e-ENERGY     RMS[dD(SAO)]   TOL
  16  -962.31142537622    -4454.2549050     1896.3974070    0.746D-07 0.129D-13
                            Exc = -133.727026750     Coul =  2030.12443373    
                              N = 151.99984913    
                            current damping = 0.050
 
          Norm of current diis error: 0.19935E-03
          max. resid. norm for Fia-block=  3.875D-06 for orbital     75a         
          max. resid. fock norm         =  6.479D-06 for orbital   2225a         

 DENSITY CONVERGED !


 ITERATION  ENERGY          1e-ENERGY        2e-ENERGY     RMS[dD(SAO)]   TOL
  17  -962.31142537715    -4454.2543224     1896.3968244    0.337D-07 0.129D-13
                            Exc = -133.727004437     Coul =  2030.12382880    
                              N = 151.99984913    
                            current damping = 0.100
 
          Norm of current diis error: 0.12786E-03
          max. resid. norm for Fia-block=  2.255D-06 for orbital     70a         
          max. resid. fock norm         =  4.050D-06 for orbital   2227a         

 DENSITY CONVERGED !


 ITERATION  ENERGY          1e-ENERGY        2e-ENERGY     RMS[dD(SAO)]   TOL
  18  -962.31142537773    -4454.2543464     1896.3968484    0.224D-07 0.129D-13
                            Exc = -133.727003686     Coul =  2030.12385207    
                              N = 151.99984913    
                            current damping = 0.150
 
          Norm of current diis error: 0.47535E-04
          max. resid. norm for Fia-block=  1.121D-06 for orbital     68a         
          max. resid. fock norm         =  1.828D-06 for orbital     29a         

 DENSITY CONVERGED !


 ITERATION  ENERGY          1e-ENERGY        2e-ENERGY     RMS[dD(SAO)]   TOL
  19  -962.31142537779    -4454.2544141     1896.3969161    0.979D-08 0.129D-13
                            Exc = -133.727008713     Coul =  2030.12392481    
                              N = 151.99984913    
                            current damping = 0.050
 
          Norm of current diis error: 0.23822E-04
          max. resid. norm for Fia-block=  4.641D-07 for orbital     68a         
          max. resid. fock norm         =  7.117D-07 for orbital   2230a         

 ENERGY & DENSITY CONVERGED !


 ITERATION  ENERGY          1e-ENERGY        2e-ENERGY     RMS[dD(SAO)]   TOL
  20  -962.31139217925    -4454.2544142     1896.3969494    0.427D-08 0.129D-13
                            Exc = -133.726974485     Coul =  2030.12392389    
                              N = 152.00002338    
                            current damping = 0.050
 
          Norm of current diis error: 0.13722E-04
          max. resid. norm for Fia-block=  1.801D-07 for orbital     75a         
          max. resid. fock norm         =  2.686D-07 for orbital   2221a         

 End of SCF iterations

   convergence criteria satisfied after   20 iterations


                  ------------------------------------------ 
                 |  total energy      =   -962.31139217925  |
                  ------------------------------------------ 
                 :  kinetic energy    =    955.92106762525  :
                 :  potential energy  =  -1918.23245980450  :
                 :  virial theorem    =      1.99335940050  :
                 :  wavefunction norm =      1.00000000000  :
                  .......................................... 


 <geterg> : there is no data group $energy 


 <skperg> : $end is missing 


 orbitals $scfmo  will be written to file mos

    irrep                 72a         73a         74a         75a         76a   
 eigenvalues H         -0.36943    -0.32073    -0.31820    -0.31725    -0.30879
            eV         -10.0529     -8.7277     -8.6586     -8.6329     -8.4028
 occupation              2.0000      2.0000      2.0000      2.0000      2.0000 

    irrep                 77a         78a         79a         80a         81a   
 eigenvalues H         -0.19870    -0.18042    -0.15313    -0.14731    -0.13825
            eV          -5.4069     -4.9094     -4.1670     -4.0086     -3.7620
 
 
 ! grave: sending quit signal to master process
 
 
 
 
 ==============================================================================
                           electrostatic moments
 ==============================================================================

 reference point for electrostatic moments:    0.00000   0.00000   0.00000

 
              nuc           elec       ->  total
 ------------------------------------------------------------------------------
                          charge      
 ------------------------------------------------------------------------------
         153.000000    -152.000000       1.000000
 
 ------------------------------------------------------------------------------
                       dipole moment  
 ------------------------------------------------------------------------------
   x      -1.596240       1.576993      -0.019247
   y      -1.970551       1.960119      -0.010431
   z   -1550.785901    1543.739534      -7.046367
 
   | dipole moment | =     7.0464 a.u. =    17.9102 debye 
 
 ------------------------------------------------------------------------------
                     quadrupole moment
 ------------------------------------------------------------------------------
  xx     339.135712    -435.342970     -96.207259
  yy   10054.248915  -10086.040193     -31.791279
  zz   16519.708918  -16543.268946     -23.560028
  xy   -1836.059372    1826.342792      -9.716580
  xz      15.784931     -15.724056       0.060875
  yz       5.560214      -5.559777       0.000438
 
     1/3  trace=     -50.519522
     anisotropy=      70.927026
 
 ==============================================================================
 

    ridft profiling
  --------------------------------------------------------------------
             module   cpu total (s)       %  wall total (s)       %

               RIDFT          2141.9  100.00          2143.5  100.00
         Ridft_b_scf           928.4   43.35           927.8   43.28
        b_scf_prelim             0.0    0.00             0.0    0.00
        b_scf_molinp             0.0    0.00             0.0    0.00
         b_scf_init0             0.0    0.00             0.0    0.00
        b_scf_auxbas             0.0    0.00             0.0    0.00
      b_scf_symmetry             0.0    0.00             0.0    0.00
         b_scf_cosmo             0.0    0.00             0.0    0.00
        b_scf_params           787.3   36.76           786.8   36.70
          b_scf_ri-j           126.9    5.93           126.8    5.92
    b_scf_ri-j_auxpq           126.9    5.92           126.8    5.92
     ri-j_auxpq_chol             3.1    0.14             3.1    0.14
         b_scf_1elec             0.8    0.04             0.8    0.04
       b_scf_moinput            13.3    0.62            13.3    0.62
     moinput_orthmos            13.2    0.62            13.2    0.62
    b_scf_dft-dstmax             0.0    0.00             0.0    0.00
           Ridft_scf          1213.1   56.64          1215.3   56.70
          Scf_b_loop             0.0    0.00             0.0    0.00
                noga             0.0    0.00             0.0    0.00
            Scf_loop          1211.1   56.54          1213.2   56.60
     scf_loop_mkdmat             4.3    0.20             4.3    0.20
       scf_loop_ri-j           165.6    7.73           165.4    7.72
      parlp1.bc.dens             1.3    0.06             1.3    0.06
        parlp1.gs.gp             1.3    0.06             1.3    0.06
        parlp2.bc.gq             0.0    0.00             0.0    0.00
        scf_loop_dft           828.1   38.66           827.5   38.60
      pardft.bc.dens             0.0    0.00             0.0    0.00
        dft_grid_con            30.0    1.40            30.0    1.40
           dft_xcrhf           778.2   36.33           777.6   36.28
          dft_getval            73.0    3.41            73.0    3.41
          funct2 dst             2.4    0.11             2.4    0.11
      funct2 f2loop1            13.9    0.65            13.9    0.65
      funct2 f2loop2            33.2    1.55            33.3    1.56
          funct2 s+c            19.1    0.89            19.0    0.89
        funct2 cmf_2            17.4    0.81            17.5    0.81
          dft_mkdens           333.9   15.59           333.7   15.57
         dft_gga-fun             1.1    0.05             1.0    0.05
          dft_mkfock           366.7   17.12           366.5   17.10
     pardft.red.fock            83.2    3.88            83.1    3.88
     scf_loop_energy             0.1    0.00             0.1    0.00
     scf_loop_mkfock             0.1    0.01             0.1    0.01
       scf_loop_diis            90.0    4.20            89.9    4.19
       scf_loop_diag            74.5    3.48            74.5    3.47
         diag_tritrn            26.2    1.22            26.2    1.22
          diag_rdiag            48.1    2.25            48.1    2.24
     scf_loop_modump            33.8    1.58            36.7    1.71
      scf_loop_ortho            13.6    0.63            13.6    0.63
          Scf_a_loop             2.0    0.09             2.2    0.10
         Ridft_a_scf             0.4    0.02             0.4    0.02
         a_scf_fanal             0.4    0.02             0.4    0.02
 


    ------------------------------------------------------------------------
         total  cpu-time : 35 minutes and 44 seconds
         total wall-time : 35 minutes and 46 seconds
    ------------------------------------------------------------------------


   ****  ridft : all done  ****


    2017-11-09 02:29:10.297 

