           Doing BLAS/Lapack in the master proc. with  8 CPUs.
           SMPCPUS    set: Shared-memory Parallelization with   8 CPUs.

           SMP Parallelization Reference:
           C. van Wullen, J. Comput. Chem. 32 (2011) 1195--1201
 operating system is UNIX !

 ridft (c-18-262.gp.local) : TURBOMOLE V7.2 ( 21454 ) 4 Oct 2017 at 12:48:15
 Copyright (C) 2017 TURBOMOLE GmbH, Karlsruhe


    2018-04-28 20:54:52.017 



                                  r i d f t

                        DFT program with RI approximation 
                                for coulomb part 




                                                 
                                 References:     
                                                 
          TURBOMOLE:                             
              R. Ahlrichs, M. Baer, M. Haeser, H. Horn, and
              C. Koelmel
              Electronic structure calculations on workstation
              computers: the program system TURBOMOLE
              Chem. Phys. Lett. 162: 165 (1989)
          Density Functional:                              
              O. Treutler and R. Ahlrichs                      
              Efficient Molecular Numerical Integration Schemes
              J. Chem. Phys. 102: 346 (1995)                   
          Parallel Version:                                
              Performance of parallel TURBOMOLE for Density    
              Functional Calculations                          
              M. v. Arnim and R. Ahlrichs                      
              J. Comp. Chem. 19: 1746 (1998)                   
          RI-J Method:                                     
              Auxiliary Basis Sets to approximate Coulomb      
              Potentials                                       
              Chem. Phys. Lett. 240: 283 (1995)                
              K. Eichkorn, O. Treutler, H. Oehm, M. Haeser     
              and R. Ahlrichs                                  
              Chem. Phys. Lett. 242: 652 (1995)                
                                                           
              Auxiliary Basis Sets for Main Row Atoms and their
              Use to approximate Coulomb Potentials            
              K. Eichkorn, F. Weigend, O. Treutler and         
              R. Ahlrichs                                      
              Theo. Chem. Acc. 97: 119 (1997)                   
                                                           
              Accurate Coulomb-fitting basis sets for H to Rn 
              F. Weigend                                        
              Phys. Chem. Chem. Phys. 8: 1057 (2006)            
                                                           
          Multipole accelerated RI-J (MARI-J):             
              Fast evaluation of the Coulomb potential for     
              electron densities using multipole accelerated   
              resolution of identity approximation             
              M. Sierka, A. Hogekamp and R. Ahlrichs           
              J. Chem. Phys. 118: 9136 (2003)                  
          RI-JK Method:                                     
              A fully direct RI-HF algorithm: Implementation,
              optimised auxiliary basis sets, demonstration of
              accuracy and efficiency                         
              F. Weigend                                      
              Phys. Chem. Chem. Phys. 4: 4285 (2002)           
          Two-component HF and DFT with spin-orbit coupling:  
              Self-consistent treatment of spin-orbit         
              interactions with efficient Hartree-Fock and    
              density functional methods                      
              M. K. Armbruster, F. Weigend, C. van Wüllen and 
              W. Klopper                                      
              Phys. Chem. Chem. Phys. 10: 1748 (2008)         
          Relativistic all-electron 2c calculations           
              An efficient implementation of two-component    
              relativistic exact-decoupling methods for large 
              molecules                                       
              D. Peng, N. Middendorf, F. Weigend, M. Reiher   
              J. Chem. Phys. 138, 184105 (2013)               
                                         




              +--------------------------------------------------+
              |      general information about current run       |
              +--------------------------------------------------+

 

 DENSITY CONVERGENCE CHECK SWITCHED ON !
 SCF CONVERGENCE IF RMS(delta[D]) <     0.1000000000E-06

 PBE functional
 exchange:    LDA + PBE
 correlation: LDA (PW) + PBE
 A DFT calculation using the RI-J approximation will be carried out.
 Allocatable memory for RI due to $ricore (MB):                  5000


              +--------------------------------------------------+
              | Atomic coordinate, charge and isotop information |
              +--------------------------------------------------+

                    atomic coordinates            atom    charge  isotop
         -2.56144987   -1.57989785    1.38823995    n      7.000     0
         -1.94712124   -2.61258855    2.87872494    h      1.000     0
         -2.43310269   -2.74733730   -0.98389535    c      6.000     0
         -1.69909272   -4.92722701   -1.18292459    o      8.000     0
         -3.76052233    2.29962631   -0.18532888    n      7.000     0
         -3.22358042   -1.86542644   -4.93595627    h      1.000     0
         -3.78757176    1.32445757   -2.57833742    c      6.000     0
         -4.30116174    2.63571739   -4.05468202    h      1.000     0
         -3.19944265   -1.11160545   -3.04715924    c      6.000     0
         -3.98356913    4.16726647    0.10739148    h      1.000     0
         -3.06986919    0.92390129    1.92509860    c      6.000     0
         -2.90956559    1.84346168    4.02475582    o      8.000     0
 
       center of nuclear mass  :   -2.90722941   -0.50191366    0.00000250
       center of nuclear charge:   -2.92273142   -0.46500962   -0.05095267

              +--------------------------------------------------+
              |               basis set information              |
              +--------------------------------------------------+

              we will work with the 1s 3p 5d 7f 9g ... basis set
              ...i.e. with spherical basis functions...

   type   atoms  prim   cont   basis
   ---------------------------------------------------------------------------
    n        2     50     30   cc-pVTZ   [4s3p2d1f|18s5p2d1f]
    h        4     16     14   cc-pVTZ   [3s2p1d|5s2p1d]
    c        4     50     30   cc-pVTZ   [4s3p2d1f|18s5p2d1f]
    o        2     50     30   cc-pVTZ   [4s3p2d1f|18s5p2d1f]
   ---------------------------------------------------------------------------
   total:   12    464    296
   ---------------------------------------------------------------------------

   total number of primitive shells          :   86
   total number of contracted shells         :  104
   total number of cartesian basis functions :  340
   total number of SCF-basis functions       :  296


 integral neglect threshold       :  0.98E-13
 integral storage threshold THIZE :  0.10E-04
 integral storage threshold THIME :         5

 RI-J AUXILIARY BASIS SET information:

              we will work with the 1s 3p 5d 7f 9g ... basis set
              ...i.e. with spherical basis functions...

   type   atoms  prim   cont   basis
   ---------------------------------------------------------------------------
    n        2     70     49   cc-pVTZ   [6s4p3d1f1g|12s5p4d2f1g]
    h        4     16     11   cc-pVTZ   [3s1p1d|5s2p1d]
    c        4     70     49   cc-pVTZ   [6s4p3d1f1g|12s5p4d2f1g]
    o        2     70     49   cc-pVTZ   [6s4p3d1f1g|12s5p4d2f1g]
   ---------------------------------------------------------------------------
   total:   12    624    436
   ---------------------------------------------------------------------------

   total number of primitive shells          :   80
   total number of contracted shells         :  140
   total number of cartesian basis functions :  536
   total number of SCF-basis functions       :  436


 symmetry group of the molecule :   c1 

 the group has the following generators :
   c1(z)

    1 symmetry operations found

 there are 1 real representations :   a   

 maximum number of shells which are related by symmetry :  1


    mo occupation :
   irrep   mo's   occupied
    a      296       29
 
 number of basis functions   :                    296
 number of occupied orbitals :                     29
 
  
           ------------------
           density functional
           ------------------
 PBE functional
 exchange:    LDA + PBE
 correlation: LDA (PW) + PBE

 iterations will be done with small grid
  
 spherical integration : Lebedev's spherical grid
 spherical gridsize    :                     5
    i.e. gridpoints    :                   590
 value for diffuse not defined
 radial integration    : Chebyshev 2nd kind (scaling 3)
 radial gridsize       :                     8
 integration cells     :                    12
 partition function    : becke
 partition sharpness   :                     3
  

 biggest AO integral is expected to be     4.866064444
  
           ------------------------
               RI-J - INFORMATION
           ------------------------
 Contributions to RI integral batches: 
  neglected integral batches:                   351
  direct contribution:                            0
  memory contribution:                  5109
 Memory core needed for (P|Q) and Cholesky      2 MByte
 Memory core minimum needed except of (P|Q)     1 MByte
 Total minimum memory core needed (sum)         2 MByte
  
 ****************************************
 Memory allocated for RI-J   222 MByte
 ****************************************
                                            

          ------------------------
          nuclear repulsion energy  :   357.160273677    
          ------------------------


         -----------------
         -S,T+V- integrals
         -----------------

 1e-integrals will be neglected if expon. factor < 0.982930E-14
 Difference densities >>NOT<< switched on in parallel ridft!

 DIIS switched on: error vector is FDS-SDF
 Max. Iterations for DIIS is     :   4
 DIIS matrix (see manual) 
    Scaling factor of diagonals  :  1.200
    threshold for scaling factor :  0.000

 scf convergence criterion : increment of total energy < .1000000D-08
                  and increment of one-electron energy < .1000000D-05

  MOs are in ASCII format !


 automatic virtual orbital shift switched on 
      shift if e(lumo)-e(homo) < 0.10000000    


 reading orbital data $scfmo  from file mos
 orbital characterization : expanded
 mo provided and orthogonalized by Cholesky decomposition

 DSCF restart information will be dumped onto file mos


 Starting SCF iterations

          Overall gridpoints after grid construction =         63551

 ITERATION  ENERGY          1e-ENERGY        2e-ENERGY     RMS[dD(SAO)]   TOL
   1  -412.61928683201    -1261.7625598     491.98299932    0.000D+00 0.980D-13
                            Exc = -53.6124507877     Coul =  545.595450112    
                              N = 57.999994949    
                            current damping = 0.700
 
          max. resid. norm for Fia-block=  4.431D-01 for orbital     20a         
          max. resid. fock norm         =  4.886D+00 for orbital    277a         

 ITERATION  ENERGY          1e-ENERGY        2e-ENERGY     RMS[dD(SAO)]   TOL
   2  -414.23952240983    -1268.4540014     497.05420528    0.491D-02 0.980D-13
                            Exc = -53.5290821872     Coul =  550.583287467    
                              N = 57.999998768    
                            current damping = 0.650
 
          Norm of current diis error:  2.2692    
          max. resid. norm for Fia-block=  1.559D-01 for orbital      1a         
          max. resid. fock norm         =  3.751D-01 for orbital    294a         

 ITERATION  ENERGY          1e-ENERGY        2e-ENERGY     RMS[dD(SAO)]   TOL
   3  -414.44729787369    -1271.2505937     499.64302218    0.323D-02 0.980D-13
                            Exc = -53.7924189205     Coul =  553.435441105    
                              N = 57.999999794    
                            current damping = 0.550
 
          Norm of current diis error:  1.0554    
          max. resid. norm for Fia-block=  6.422D-02 for orbital      1a         
          max. resid. fock norm         =  8.266D-02 for orbital     58a         

 ITERATION  ENERGY          1e-ENERGY        2e-ENERGY     RMS[dD(SAO)]   TOL
   4  -414.50111705031    -1271.5390467     499.87765599    0.291D-02 0.980D-13
                            Exc = -53.7160692167     Coul =  553.593725209    
                              N = 58.000000677    
                            current damping = 0.400
 
          Norm of current diis error: 0.50153    
          max. resid. norm for Fia-block=  3.051D-02 for orbital     10a         
          max. resid. fock norm         =  6.706D-02 for orbital    278a         

 ITERATION  ENERGY          1e-ENERGY        2e-ENERGY     RMS[dD(SAO)]   TOL
   5  -414.50955314715    -1271.8314526     500.16162581    0.888D-03 0.980D-13
                            Exc = -53.8019247675     Coul =  553.963550574    
                              N = 58.000000679    
                            current damping = 0.250
 
          Norm of current diis error: 0.32071    
          max. resid. norm for Fia-block=  9.757D-03 for orbital     26a         
          max. resid. fock norm         =  1.268D-02 for orbital    292a         
          mo-orthogonalization: Cholesky decomposition

 ITERATION  ENERGY          1e-ENERGY        2e-ENERGY     RMS[dD(SAO)]   TOL
   6  -414.51436578687    -1272.2096017     500.53496226    0.780D-03 0.980D-13
                            Exc = -53.8003348302     Coul =  554.335297094    
                              N = 58.000000719    
                            current damping = 0.100
 
          Norm of current diis error: 0.88713E-01
          max. resid. norm for Fia-block=  3.884D-03 for orbital     26a         
          max. resid. fock norm         =  5.815D-03 for orbital    292a         

 ITERATION  ENERGY          1e-ENERGY        2e-ENERGY     RMS[dD(SAO)]   TOL
   7  -414.51444888384    -1271.9379633     500.26324078    0.220D-03 0.980D-13
                            Exc = -53.7781404645     Coul =  554.041381240    
                              N = 58.000000867    
                            current damping = 0.150
 
          Norm of current diis error: 0.74787E-01
          max. resid. norm for Fia-block=  2.343D-03 for orbital     28a         
          max. resid. fock norm         =  4.182D-03 for orbital     21a         

 ITERATION  ENERGY          1e-ENERGY        2e-ENERGY     RMS[dD(SAO)]   TOL
   8  -414.51467171105    -1272.0201605     500.34521512    0.115D-03 0.980D-13
                            Exc = -53.7893519717     Coul =  554.134567092    
                              N = 58.000000912    
                            current damping = 0.200
 
          Norm of current diis error: 0.27080E-01
          max. resid. norm for Fia-block=  1.187D-03 for orbital     29a         
          max. resid. fock norm         =  2.299D-03 for orbital    275a         

 ITERATION  ENERGY          1e-ENERGY        2e-ENERGY     RMS[dD(SAO)]   TOL
   9  -414.51468624421    -1272.0818349     500.40687501    0.814D-04 0.980D-13
                            Exc = -53.7945302783     Coul =  554.201405293    
                              N = 58.000000757    
                            current damping = 0.050
 
          Norm of current diis error: 0.20472E-01
          max. resid. norm for Fia-block=  8.027D-04 for orbital     29a         
          max. resid. fock norm         =  1.170D-03 for orbital    294a         

 ITERATION  ENERGY          1e-ENERGY        2e-ENERGY     RMS[dD(SAO)]   TOL
  10  -414.51470332233    -1272.0632293     500.38825227    0.574D-04 0.980D-13
                            Exc = -53.7905325437     Coul =  554.178784817    
                              N = 58.000000844    
                            current damping = 0.100
 
          Norm of current diis error: 0.10980E-01
          max. resid. norm for Fia-block=  2.881D-04 for orbital     29a         
          max. resid. fock norm         =  4.703D-04 for orbital    294a         
          mo-orthogonalization: Cholesky decomposition

 ITERATION  ENERGY          1e-ENERGY        2e-ENERGY     RMS[dD(SAO)]   TOL
  11  -414.51470872022    -1272.0539181     500.37893566    0.173D-04 0.980D-13
                            Exc = -53.7913213601     Coul =  554.170257018    
                              N = 58.000000832    
                            current damping = 0.050
 
          Norm of current diis error: 0.25020E-02
          max. resid. norm for Fia-block=  6.799D-05 for orbital     24a         
          max. resid. fock norm         =  9.808D-05 for orbital     20a         

 ITERATION  ENERGY          1e-ENERGY        2e-ENERGY     RMS[dD(SAO)]   TOL
  12  -414.51470891458    -1272.0596922     500.38470961    0.256D-05 0.980D-13
                            Exc = -53.7914273564     Coul =  554.176136969    
                              N = 58.000000829    
                            current damping = 0.100
 
          Norm of current diis error: 0.12265E-02
          max. resid. norm for Fia-block=  4.340D-05 for orbital     25a         
          max. resid. fock norm         =  6.168D-05 for orbital    296a         

 ITERATION  ENERGY          1e-ENERGY        2e-ENERGY     RMS[dD(SAO)]   TOL
  13  -414.51470895549    -1272.0580951     500.38311247    0.159D-05 0.980D-13
                            Exc = -53.7913332129     Coul =  554.174445688    
                              N = 58.000000830    
                            current damping = 0.150
 
          Norm of current diis error: 0.63641E-03
          max. resid. norm for Fia-block=  1.878D-05 for orbital     25a         
          max. resid. fock norm         =  2.850D-05 for orbital    291a         

 ITERATION  ENERGY          1e-ENERGY        2e-ENERGY     RMS[dD(SAO)]   TOL
  14  -414.51470896782    -1272.0574524     500.38246973    0.734D-06 0.980D-13
                            Exc = -53.7913290850     Coul =  554.173798810    
                              N = 58.000000832    
                            current damping = 0.050
 
          Norm of current diis error: 0.31006E-03
          max. resid. norm for Fia-block=  1.162D-05 for orbital     28a         
          max. resid. fock norm         =  2.275D-05 for orbital    274a         

 ITERATION  ENERGY          1e-ENERGY        2e-ENERGY     RMS[dD(SAO)]   TOL
  15  -414.51470896947    -1272.0578229     500.38284023    0.860D-06 0.980D-13
                            Exc = -53.7913475608     Coul =  554.174187788    
                              N = 58.000000830    
                            current damping = 0.100
 
          Norm of current diis error: 0.24034E-03
          max. resid. norm for Fia-block=  6.707D-06 for orbital     28a         
          max. resid. fock norm         =  1.394D-05 for orbital    274a         
          mo-orthogonalization: Cholesky decomposition

 ITERATION  ENERGY          1e-ENERGY        2e-ENERGY     RMS[dD(SAO)]   TOL
  16  -414.51470897236    -1272.0578907     500.38290805    0.458D-06 0.980D-13
                            Exc = -53.7913512828     Coul =  554.174259337    
                              N = 58.000000831    
                            current damping = 0.050
 
          Norm of current diis error: 0.54536E-04
          max. resid. norm for Fia-block=  2.220D-06 for orbital     26a         
          max. resid. fock norm         =  3.995D-06 for orbital     21a         

 ITERATION  ENERGY          1e-ENERGY        2e-ENERGY     RMS[dD(SAO)]   TOL
  17  -414.51470897239    -1272.0577474     500.38276475    0.127D-06 0.980D-13
                            Exc = -53.7913396303     Coul =  554.174104381    
                              N = 58.000000831    
                            current damping = 0.100
 
          Norm of current diis error: 0.49468E-04
          max. resid. norm for Fia-block=  1.263D-06 for orbital     26a         
          max. resid. fock norm         =  2.411D-06 for orbital    295a         

 DENSITY CONVERGED !


 ITERATION  ENERGY          1e-ENERGY        2e-ENERGY     RMS[dD(SAO)]   TOL
  18  -414.51470897250    -1272.0577875     500.38280483    0.650D-07 0.980D-13
                            Exc = -53.7913447413     Coul =  554.174149576    
                              N = 58.000000831    
                            current damping = 0.150
 
          Norm of current diis error: 0.12850E-04
          max. resid. norm for Fia-block=  4.499D-07 for orbital     25a         
          max. resid. fock norm         =  7.870D-07 for orbital    293a         

 DENSITY CONVERGED !


 ITERATION  ENERGY          1e-ENERGY        2e-ENERGY     RMS[dD(SAO)]   TOL
  19  -414.51470897250    -1272.0578130     500.38283034    0.182D-07 0.980D-13
                            Exc = -53.7913448194     Coul =  554.174175161    
                              N = 58.000000831    
                            current damping = 0.050
 
          Norm of current diis error: 0.90963E-05
          max. resid. norm for Fia-block=  3.010D-07 for orbital     27a         
          max. resid. fock norm         =  4.528D-07 for orbital    292a         

 ENERGY & DENSITY CONVERGED !

          Overall gridpoints after grid construction =        200158

 ITERATION  ENERGY          1e-ENERGY        2e-ENERGY     RMS[dD(SAO)]   TOL
  20  -414.51470924087    -1272.0578070     500.38282408    0.132D-07 0.980D-13
                            Exc = -53.7913456936     Coul =  554.174169775    
                              N = 58.000000506    
                            current damping = 0.100
 
          Norm of current diis error: 0.44987E-05
          max. resid. norm for Fia-block=  1.539D-07 for orbital     26a         
          max. resid. fock norm         =  2.826D-07 for orbital    292a         

 End of SCF iterations

   convergence criteria satisfied after    20 iterations


                  ------------------------------------------ 
                 |  total energy      =   -414.51470924087  |
                  ------------------------------------------ 
                 :  kinetic energy    =    412.12513682767  :
                 :  potential energy  =   -826.63984606853  :
                 :  virial theorem    =      1.99423525303  :
                 :  wavefunction norm =      1.00000000000  :
                  .......................................... 


 <geterg> : there is no data group $energy 


 <skperg> : $end is missing 


 orbitals $scfmo  will be written to file mos

    irrep                 25a         26a         27a         28a         29a   
 eigenvalues H         -0.33762    -0.25816    -0.25335    -0.23035    -0.22300
            eV          -9.1873     -7.0250     -6.8941     -6.2682     -6.0683
 occupation              2.0000      2.0000      2.0000      2.0000      2.0000 

    irrep                 30a         31a         32a         33a         34a   
 eigenvalues H         -0.08204    -0.03268    -0.00882     0.03710     0.04041
            eV          -2.2324     -0.8893     -0.2401      1.0095      1.0996
 
 
 
 
 ==============================================================================
                           electrostatic moments
 ==============================================================================

 reference point for electrostatic moments:    0.00000   0.00000   0.00000

 
              nuc           elec       ->  total
 ------------------------------------------------------------------------------
                          charge      
 ------------------------------------------------------------------------------
          58.000000     -58.000000      -0.000000
 
 ------------------------------------------------------------------------------
                       dipole moment  
 ------------------------------------------------------------------------------
   x    -169.518422     169.037821      -0.480602
   y     -26.970558      28.277761       1.307204
   z      -2.955255       2.044179      -0.911076
 
   | dipole moment | =     1.6643 a.u. =     4.2302 debye 
 
 ------------------------------------------------------------------------------
                     quadrupole moment
 ------------------------------------------------------------------------------
  xx     523.846658    -555.061975     -31.215316
  yy     378.864257    -415.605956     -36.741698
  zz     327.259707    -362.171514     -34.911807
  xy     -10.648463       7.033350      -3.615113
  xz      25.696113     -21.341995       4.354117
  yz     105.819393    -112.280786      -6.461393
 
     1/3  trace=     -34.289607
     anisotropy=      15.655915
 
 ==============================================================================
 


    ------------------------------------------------------------------------
         total  cpu-time :  2 minutes and 34 seconds
         total wall-time :  14.94 seconds
    ------------------------------------------------------------------------

   ****  ridft : all done  ****


    2018-04-28 20:55:06.950 

