
   OpenMP run-time library returned nthreads = 28
 operating system is UNIX !

 dscf (c-19-414) : TURBOMOLE V7.3 ( 22142 ) 4 Jul 2018 at 18:12:42
 Copyright (C) 2018 TURBOMOLE GmbH, Karlsruhe


    2019-04-02 15:50:32.950 



                             d s c f - program

                   idea & directorship : reinhart ahlrichs
                   program development : marco haeser
                                         michael baer
                           dft version : oliver treutler


                          quantum chemistry group
                          universitaet  karlsruhe
                                  germany




                          References             
                                                 
          TURBOMOLE:                             
              R. Ahlrichs, M. Baer, M. Haeser, H. Horn, and
              C. Koelmel
              Electronic structure calculations on workstation
              computers: the program system TURBOMOLE
              Chem. Phys. Lett. 162: 165 (1989)
          Density Functional:                              
              O. Treutler and R. Ahlrichs                      
              Efficient Molecular Numerical Integration Schemes
              J. Chem. Phys. 102: 346 (1995)                   
          Parallel Version:                                
              Performance of parallel TURBOMOLE for Density    
              Functional Calculations                          
              M. v. Arnim and R. Ahlrichs                      
              J. Comp. Chem. 19: 1746 (1998)                   
                                         




              +--------------------------------------------------+
              | Atomic coordinate, charge and isotop information |
              +--------------------------------------------------+

                    atomic coordinates            atom    charge  isotop
         -1.60497600   -0.64155967    4.70866205    c      6.000     0
          0.34835960   -0.02087640    4.56592873    h      1.000     0
         -1.66767936   -2.53610960    5.50421116    h      1.000     0
         -2.62823607    0.59881317    5.98746302    h      1.000     0
         -2.95559200   -0.66768390    2.19109105    c      6.000     0
         -5.19585185   -1.23122793    1.99698863    o      8.000     0
         -1.51490560   -0.05169273    0.16694156    n      7.000     0
          0.30460034    0.45421523    0.41330888    h      1.000     0
         -2.61793184   -0.00444367   -2.33218061    c      6.000     0
         -3.57463846   -1.78163612   -2.72138764    h      1.000     0
         -4.00616706    1.50462226   -2.51499782    h      1.000     0
         -1.12371796    0.28264758   -3.70977376    h      1.000     0
          4.03846890    0.47624381    0.85740428    o      8.000     0
          5.40068707    1.66166831    1.02826351    h      1.000     0
          5.01939581   -1.99053978    1.29937681    c      6.000     0
          3.44606368   -3.29215987    1.09986601    h      1.000     0
          6.46718824   -2.49886240   -0.07422879    h      1.000     0
          5.79058745   -2.18225098    3.19975058    h      1.000     0
 
       center of nuclear mass  :   -0.54065006   -0.57413314    1.24936956
       center of nuclear charge:   -0.41484447   -0.58684505    1.24110058

              +--------------------------------------------------+
              |               basis set information              |
              +--------------------------------------------------+

              we will work with the 1s 3p 5d 7f 9g ... basis set
              ...i.e. with spherical basis functions...

   type   atoms  prim   cont   basis
   ---------------------------------------------------------------------------
    c        4     50     30   cc-pVTZ   [4s3p2d1f|18s5p2d1f]
    h       11     16     14   cc-pVTZ   [3s2p1d|5s2p1d]
    o        2     50     30   cc-pVTZ   [4s3p2d1f|18s5p2d1f]
    n        1     50     30   cc-pVTZ   [4s3p2d1f|18s5p2d1f]
   ---------------------------------------------------------------------------
   total:   18    526    364
   ---------------------------------------------------------------------------

   total number of primitive shells          :   86
   total number of contracted shells         :  136
   total number of cartesian basis functions :  410
   total number of SCF-basis functions       :  364


 integral neglect threshold       :  0.81E-13
 integral storage threshold THIZE :  0.10E-04
 integral storage threshold THIME :         5


 DENSITY CONVERGENCE CHECK SWITCHED ON !
 SCF CONVERGENCE IF RMS(delta[D]) <     0.1000000000E-06


 symmetry group of the molecule :   c1 

 the group has the following generators :
   c1(z)

    1 symmetry operations found

 there are 1 real representations :   a   

 maximum number of shells which are related by symmetry :  1


    mo occupation :
   irrep   mo's   occupied
    a      364       29
 
 number of basis functions   :                    364
 number of occupied orbitals :                     29
 

 automatic virtual orbital shift switched on 
      shift if e(lumo)-e(homo) < 0.10000000    


          ------------------------
          nuclear repulsion energy  :   314.847890169    
          ------------------------


         -----------------
         -S,T+V- integrals
         -----------------

 1e-integrals will be neglected if expon. factor < 0.815113E-14
 
   Difference densities algorithm switched on.
   The maximal number of linear combinations of
   difference densities is                    20 .

 DIIS switched on: error vector is FDS-SDF
 Max. Iterations for DIIS is     :   5
 DIIS matrix (see manual) 
    Scaling factor of diagonals  :  1.200
    threshold for scaling factor :  0.000

 scf convergence criterion : increment of total energy < .1000000D-08
                  and increment of one-electron energy < .1000000D-05

  MOs are in ASCII format !


 reading orbital data $scfmo  from file mos
 orbital characterization : scfconv=9

 DSCF restart information will be dumped onto file mos

 
                                              current damping :  0.700
 ITERATION  ENERGY          1e-ENERGY        2e-ENERGY     RMS[dD(SAO)]   TOL
   1  -362.11817663548    -1119.3287152     442.36264842    0.000D+00 0.813D-13
          max. resid. norm for Fia-block=  1.034D-01 for orbital      2a         
          max. resid. fock norm         =  1.796D-01 for orbital    359a         
          Delta Eig. =    28.7433375590 eV 
 
                                              current damping :  0.650
 ITERATION  ENERGY          1e-ENERGY        2e-ENERGY     RMS[dD(SAO)]   TOL
   2  -362.17934523272    -1118.6135656     441.58633021    0.100D-02 0.517D-13
          Norm of current diis error: 0.49995    
          max. resid. norm for Fia-block=  4.761D-02 for orbital      1a         
          max. resid. fock norm         =  7.496D-02 for orbital    359a         
          Delta Eig. =    12.2426728732 eV 
 
                                              current damping :  0.600
 ITERATION  ENERGY          1e-ENERGY        2e-ENERGY     RMS[dD(SAO)]   TOL
   3  -362.19162272862    -1118.7325051     441.69299224    0.479D-03 0.396D-13
          Norm of current diis error: 0.22303    
          max. resid. norm for Fia-block=  2.263D-02 for orbital      2a         
          max. resid. fock norm         =  2.792D-02 for orbital    359a         
          Delta Eig. =     5.5198733561 eV 
 
                                              current damping :  0.650
 ITERATION  ENERGY          1e-ENERGY        2e-ENERGY     RMS[dD(SAO)]   TOL
   4  -362.19438298598    -1118.7286815     441.68640839    0.246D-03 0.349D-13
          Norm of current diis error: 0.93109E-01
          max. resid. norm for Fia-block=  7.748D-03 for orbital      1a         
          max. resid. fock norm         =  1.171D-02 for orbital    270a         
          Delta Eig. =     1.8132378612 eV 
 
                                              current damping :  0.500
 ITERATION  ENERGY          1e-ENERGY        2e-ENERGY     RMS[dD(SAO)]   TOL
   5  -362.19486981458    -1118.7114681     441.66870810    0.939D-04 0.324D-13
          Norm of current diis error: 0.40150E-01
          max. resid. norm for Fia-block=  3.290D-03 for orbital     26a         
          max. resid. fock norm         =  4.310D-03 for orbital    359a         
 mo-orthogonalization: Cholesky decomposition
          Delta Eig. =     0.8145235348 eV 
 
                                              current damping :  0.350
 ITERATION  ENERGY          1e-ENERGY        2e-ENERGY     RMS[dD(SAO)]   TOL
   6  -362.19497481338    -1118.7085113     441.66564627    0.484D-04 0.305D-13
          Norm of current diis error: 0.15860E-01
          max. resid. norm for Fia-block=  1.414D-03 for orbital     26a         
          max. resid. fock norm         =  1.617D-03 for orbital     34a         
          Delta Eig. =     0.2925554202 eV 
 
                                              current damping :  0.200
 ITERATION  ENERGY          1e-ENERGY        2e-ENERGY     RMS[dD(SAO)]   TOL
   7  -362.19499451560    -1118.7075608     441.66467609    0.216D-04 0.286D-13
          Norm of current diis error: 0.56590E-02
          max. resid. norm for Fia-block=  5.712D-04 for orbital     26a         
          max. resid. fock norm         =  6.248D-04 for orbital     34a         
          Delta Eig. =     0.0870133313 eV 
 
                                              current damping :  0.050
 ITERATION  ENERGY          1e-ENERGY        2e-ENERGY     RMS[dD(SAO)]   TOL
   8  -362.19499773202    -1118.7071267     441.66423883    0.900D-05 0.270D-13
          Norm of current diis error: 0.18739E-02
          max. resid. norm for Fia-block=  2.050D-04 for orbital     26a         
          max. resid. fock norm         =  2.322D-04 for orbital     34a         
          Delta Eig. =     0.0167563481 eV 
 
                                              current damping :  0.100
 ITERATION  ENERGY          1e-ENERGY        2e-ENERGY     RMS[dD(SAO)]   TOL
   9  -362.19499819198    -1118.7071625     441.66427410    0.345D-05 0.255D-13
          Norm of current diis error: 0.59447E-03
          max. resid. norm for Fia-block=  7.476D-05 for orbital     26a         
          max. resid. fock norm         =  8.044D-05 for orbital     26a         
          Delta Eig. =     0.0043548928 eV 
 
                                              current damping :  0.150
 ITERATION  ENERGY          1e-ENERGY        2e-ENERGY     RMS[dD(SAO)]   TOL
  10  -362.19499823469    -1118.7070664     441.66417801    0.985D-06 0.245D-13
          Norm of current diis error: 0.24025E-03
          max. resid. norm for Fia-block=  3.365D-05 for orbital     29a         
          max. resid. fock norm         =  3.962D-05 for orbital     29a         
 mo-orthogonalization: Cholesky decomposition
          Delta Eig. =     0.0022311590 eV 
 
                                              current damping :  0.200
 ITERATION  ENERGY          1e-ENERGY        2e-ENERGY     RMS[dD(SAO)]   TOL
  11  -362.19499824027    -1118.7071262     441.66423779    0.332D-06 0.239D-13
          Norm of current diis error: 0.10419E-03
          max. resid. norm for Fia-block=  1.051D-05 for orbital     26a         
          max. resid. fock norm         =  1.358D-05 for orbital    360a         
          Delta Eig. =     0.0006886354 eV 
 
                                              current damping :  0.250
 ITERATION  ENERGY          1e-ENERGY        2e-ENERGY     RMS[dD(SAO)]   TOL
  12  -362.19499824124    -1118.7071154     441.66422697    0.128D-06 0.234D-13
          Norm of current diis error: 0.29620E-04
          max. resid. norm for Fia-block=  4.889D-06 for orbital     29a         
          max. resid. fock norm         =  5.015D-06 for orbital     29a         
          Delta Eig. =     0.0000629410 eV 

 DENSITY CONVERGED !

 
                                              current damping :  0.100
 ITERATION  ENERGY          1e-ENERGY        2e-ENERGY     RMS[dD(SAO)]   TOL
  13  -362.19499824135    -1118.7071109     441.66422251    0.502D-07 0.232D-13
          Norm of current diis error: 0.11701E-04
          max. resid. norm for Fia-block=  2.040D-06 for orbital     29a         
          max. resid. fock norm         =  2.100D-06 for orbital     29a         
          Delta Eig. =     0.0000341264 eV 

 DENSITY CONVERGED !

 
                                              current damping :  0.150
 ITERATION  ENERGY          1e-ENERGY        2e-ENERGY     RMS[dD(SAO)]   TOL
  14  -362.19499824137    -1118.7071142     441.66422582    0.243D-07 0.232D-13
          Norm of current diis error: 0.44425E-05
          max. resid. norm for Fia-block=  6.617D-07 for orbital     29a         
          max. resid. fock norm         =  6.782D-07 for orbital     29a         
          Delta Eig. =     0.0000186009 eV 

 ENERGY & DENSITY CONVERGED !

 
                                              current damping :  0.200
 ITERATION  ENERGY          1e-ENERGY        2e-ENERGY     RMS[dD(SAO)]   TOL
  15  -362.19499824137    -1118.7071111     441.66422274    0.888D-08 0.232D-13
          max. resid. norm for Fia-block=  2.417D-07 for orbital     28a         
          max. resid. fock norm         =  2.726D-07 for orbital     28a         

 convergence criteria satisfied after    15 iterations


                  ------------------------------------------ 
                 |  total energy      =   -362.19499824137  |
                  ------------------------------------------ 
                 :  kinetic energy    =    361.74861156129  :
                 :  potential energy  =   -723.94360980266  :
                 :  virial theorem    =      1.99876755151  :
                 :  wavefunction norm =      1.00000000000  :
                  .......................................... 


 orbitals $scfmo  will be written to file mos

    irrep                 25a         26a         27a         28a         29a   
 eigenvalues H         -0.52433    -0.48315    -0.48046    -0.40252    -0.37209
            eV         -14.2679    -13.1473    -13.0741    -10.9533    -10.1251
 occupation              2.0000      2.0000      2.0000      2.0000      2.0000 

    irrep                 30a         31a         32a         33a         34a   
 eigenvalues H          0.11510     0.15224     0.16448     0.17011     0.19326
            eV           3.1319      4.1426      4.4758      4.6290      5.2590
 
 
 
 
 ==============================================================================
                           electrostatic moments
 ==============================================================================

 reference point for electrostatic moments:    0.00000   0.00000   0.00000

 
              nuc           elec       ->  total
 ------------------------------------------------------------------------------
                          charge      
 ------------------------------------------------------------------------------
          58.000000     -58.000000      -0.000000
 
 ------------------------------------------------------------------------------
                       dipole moment  
 ------------------------------------------------------------------------------
   x     -24.060979      26.629383       2.568404
   y     -34.037013      34.331467       0.294454
   z      71.983834     -72.039403      -0.055570
 
   | dipole moment | =     2.5858 a.u. =     6.5725 debye 
 
 ------------------------------------------------------------------------------
                     quadrupole moment
 ------------------------------------------------------------------------------
  xx     779.060948    -815.697797     -36.636849
  yy      79.999734    -111.798868     -31.799134
  zz     369.747995    -400.531122     -30.783128
  xy      -3.104724       0.432799      -2.671925
  xz     -37.347171      42.477522       5.130351
  yz     -77.798506      78.254640       0.456134
 
     1/3  trace=     -33.073037
     anisotropy=      11.417274
 
 ==============================================================================
 


    ------------------------------------------------------------------------
         total  cpu-time : 11 minutes and 40 seconds
         total wall-time :  37.53 seconds
    ------------------------------------------------------------------------

   ****  dscf : all done  ****


    2019-04-02 15:51:10.436 

