 operating system is UNIX !
 hostname is         c-15-34.local

 ridft (c-15-34.local) : TURBOMOLE V7.0.2( ) 8 Jan 2016 at 10:54:38
 Copyright (C) 2016 TURBOMOLE GmbH, Karlsruhe


    2016-02-18 16:40:19.397 



                                  r i d f t

                        DFT program with RI approximation 
                                for coulomb part 




                                                 
                                 References:     
                                                 
          TURBOMOLE:                             
              R. Ahlrichs, M. Baer, M. Haeser, H. Horn, and
              C. Koelmel
              Electronic structure calculations on workstation
              computers: the program system TURBOMOLE
              Chem. Phys. Lett. 162: 165 (1989)
          Density Functional:                              
              O. Treutler and R. Ahlrichs                      
              Efficient Molecular Numerical Integration Schemes
              J. Chem. Phys. 102: 346 (1995)                   
          Parallel Version:                                
              Performance of parallel TURBOMOLE for Density    
              Functional Calculations                          
              M. v. Arnim and R. Ahlrichs                      
              J. Comp. Chem. 19: 1746 (1998)                   
          RI-J Method:                                     
              Auxiliary Basis Sets to approximate Coulomb      
              Potentials                                       
              Chem. Phys. Lett. 240: 283 (1995)                
              K. Eichkorn, O. Treutler, H. Oehm, M. Haeser     
              and R. Ahlrichs                                  
              Chem. Phys. Lett. 242: 652 (1995)                
                                                           
              Auxiliary Basis Sets for Main Row Atoms and their
              Use to approximate Coulomb Potentials            
              K. Eichkorn, F. Weigend, O. Treutler and         
              R. Ahlrichs                                      
              Theo. Chem. Acc. 97: 119 (1997)                   
                                                           
              Accurate Coulomb-fitting basis sets for H to Rn 
              F. Weigend                                        
              Phys. Chem. Chem. Phys. 8: 1057 (2006)            
                                                           
          Multipole accelerated RI-J (MARI-J):             
              Fast evaluation of the Coulomb potential for     
              electron densities using multipole accelerated   
              resolution of identity approximation             
              M. Sierka, A. Hogekamp and R. Ahlrichs           
              J. Chem. Phys. 118: 9136 (2003)                  
          RI-JK Method:                                     
              A fully direct RI-HF algorithm: Implementation,
              optimised auxiliary basis sets, demonstration of
              accuracy and efficiency                         
              F. Weigend                                      
              Phys. Chem. Chem. Phys. 4: 4285 (2002)           
          Two-component HF and DFT with spin-orbit coupling:  
              Self-consistent treatment of spin-orbit         
              interactions with efficient Hartree-Fock and    
              density functional methods                      
              M. K. Armbruster, F. Weigend, C. van Wüllen and 
              W. Klopper                                      
              Phys. Chem. Chem. Phys. 10: 1748 (2008)         
          Relativistic all-electron 2c calculations           
              An efficient implementation of two-component    
              relativistic exact-decoupling methods for large 
              molecules                                       
              D. Peng, N. Middendorf, F. Weigend, M. Reiher   
              J. Chem. Phys. 138, 184105 (2013)               
                                         


 


              +--------------------------------------------------+
              |      general information about current run       |
              +--------------------------------------------------+

 

 DENSITY CONVERGENCE CHECK SWITCHED ON !
 SCF CONVERGENCE IF RMS(delta[D]) <     0.1000000000E-06

 TPSS meta-GGA functional
 exchange:    LDA + TPSS
 correlation: LDA (PW) + TPSS
 A DFT calculation using the RI-J approximation will be carried out.
 Allocatable memory for RI due to $ricore (MB):        5000


              +--------------------------------------------------+
              | Atomic coordinate, charge and isotop information |
              +--------------------------------------------------+

                    atomic coordinates            atom    charge  isotop
         -5.71602471   -5.40663875   -5.57924633    o      8.000     0
         -7.75554943    1.38089847   -6.02830195    o      8.000     0
         -3.59475043    7.02501910   -6.04049069    o      8.000     0
          3.26104370    7.49514517   -6.09744703    o      8.000     0
          7.32773433    1.86245738   -5.63727982    o      8.000     0
          6.27867177   -4.99142812   -5.49596610    o      8.000     0
          0.39368665   -8.23393360   -5.40002471    o      8.000     0
         -6.05670454   -4.74738889    5.82349343    o      8.000     0
         -7.94497558    1.71708075    5.54899182    o      8.000     0
         -3.87958885    7.06802927    5.44278921    o      8.000     0
          3.04459446    7.08930759    5.42307936    o      8.000     0
          8.04031226    2.22751468    5.86565322    o      8.000     0
          6.56895260   -4.47398331    5.97512506    o      8.000     0
          0.36664466   -7.74933223    6.17522816    o      8.000     0
         -5.94188478   -8.08511767   -2.10222584    n      7.000     0
         -8.46559513   -4.69695210   -2.21438108    n      7.000     0
         -9.80699833   -0.30224280   -2.52308674    n      7.000     0
         -9.10798863    3.85989791   -2.65296762    n      7.000     0
         -6.32279687    7.54170802   -2.62358238    n      7.000     0
         -2.64406701    9.63376713   -2.62329892    n      7.000     0
          1.97979048    9.86523969   -2.61645811    n      7.000     0
          5.77077008    8.00276341   -2.52036554    n      7.000     0
          8.75383506    4.49082077   -2.41276453    n      7.000     0
          9.70784440    0.38004282   -2.24593951    n      7.000     0
          9.00705836   -4.15809669   -2.14924222    n      7.000     0
          6.65780752   -7.65099089   -2.01344650    n      7.000     0
          2.54158716   -9.70799558   -1.85459612    n      7.000     0
         -1.67921064   -9.84114568   -1.87011078    n      7.000     0
         -5.84031200   -7.63700691    2.50874372    n      7.000     0
         -8.81732986   -4.63933435    2.40545129    n      7.000     0
         -9.92697704   -0.16862026    2.10566514    n      7.000     0
         -9.17531957    3.98533793    1.98576201    n      7.000     0
         -6.53459738    7.75719349    2.00482935    n      7.000     0
         -2.73135346    9.56626612    2.01104655    n      7.000     0
          1.86172039    9.60160399    2.00983713    n      7.000     0
          5.78097460    8.03273446    2.11212800    n      7.000     0
          8.81328584    4.56423663    2.21878414    n      7.000     0
         10.12078735    0.54947567    2.36856384    n      7.000     0
          9.20081198   -3.98650956    2.47926399    n      7.000     0
          6.59081673   -7.31524324    2.61209284    n      7.000     0
          2.53835573   -9.52036467    2.78220599    n      7.000     0
         -1.68333024   -9.60390946    2.75643013    n      7.000     0
         -7.30347025   -8.24217281    0.25972396    c      6.000     0
         -9.22929015   -6.00912123    0.07934960    c      6.000     0
          0.41615549   -9.14066200   -3.28111259    c      6.000     0
          5.04796873   -9.64285672   -2.95836626    c      6.000     0
        -11.05438765    0.61395312   -0.26792537    c      6.000     0
        -10.54408601    3.52639904   -0.34638680    c      6.000     0
          7.19299686   -5.52775129   -3.44695495    c      6.000     0
         10.30014126   -2.06369432   -3.32943288    c      6.000     0
         -6.47783001    9.10590993   -0.38002393    c      6.000     0
         -3.85683655   10.47626374   -0.32361560    c      6.000     0
          8.45091196    2.20644423   -3.65295400    c      6.000     0
          8.02511887    6.86403334   -3.56939031    c      6.000     0
          3.03234904   10.68039195   -0.22631360    c      6.000     0
          5.73422277    9.47894187   -0.21331229    c      6.000     0
          3.61616103    8.34244168   -3.98940084    c      6.000     0
         10.22266249    4.27072437   -0.11224973    c      6.000     0
         11.01219007    1.42184884   -0.06572467    c      6.000     0
         -4.16735635   -9.95709928   -3.00719678    c      6.000     0
         -6.59121357   -5.98716262   -3.52696596    c      6.000     0
          9.79860794   -5.35744918    0.19180720    c      6.000     0
          8.05920953   -7.74566617    0.33982945    c      6.000     0
        -10.04383770   -2.84377327   -3.48911474    c      6.000     0
         -8.75149180    1.62163069   -3.96874613    c      6.000     0
          1.94277075  -10.94244028    0.52009043    c      6.000     0
         -1.01419712  -11.02033479    0.51400551    c      6.000     0
         -8.47436346    6.28460551   -3.75915661    c      6.000     0
         -4.11149604    7.93603718   -3.99701644    c      6.000     0
         -4.20830671   -9.44496460    3.78066169    c      6.000     0
         -6.80713368   -5.56609384    3.80331951    c      6.000     0
         -0.38221601   10.75796521   -3.68364315    c      6.000     0
          0.40884225   -8.81254885    4.13576013    c      6.000     0
          5.05565991   -9.23189797    3.82393642    c      6.000     0
        -10.38281678   -2.58741302    3.30558454    c      6.000     0
         -8.89138822    1.82919820    3.45022418    c      6.000     0
          7.34134036   -5.15989721    3.92435647    c      6.000     0
         10.67765185   -1.90027080    3.46500184    c      6.000     0
         -8.71759011    6.47713081    3.02821054    c      6.000     0
         -4.32305089    8.00489880    3.38209955    c      6.000     0
          8.87867037    2.41412513    3.73253037    c      6.000     0
          8.04414841    6.98174438    3.24080473    c      6.000     0
         -0.44644780   10.56772648    3.12005123    c      6.000     0
          3.50772855    8.10745423    3.40660930    c      6.000     0
         -8.19593121  -10.10442232    0.46041288    h      1.000     0
          7.64537840    6.67456939    5.24364987    h      1.000     0
         -0.44890444   10.00432353    5.10647465    h      1.000     0
         -0.45629327   12.63699549    2.95328290    h      1.000     0
          9.58760112    8.35060529    3.01369744    h      1.000     0
         12.68998341   -2.31825933    3.18768453    h      1.000     0
        -10.39589368    7.65505380    2.71610337    h      1.000     0
         -8.37600321    6.22643974    5.04883800    h      1.000     0
         10.24065268   -1.75285327    5.47780583    h      1.000     0
          6.04001825  -11.05629627    3.71667556    h      1.000     0
        -12.37288737   -3.10661528    3.03941661    h      1.000     0
         -9.96220154   -2.34911856    5.31253039    h      1.000     0
          4.82052129   -8.65460554    5.79286097    h      1.000     0
         -0.34510179   10.25714999   -5.68675285    h      1.000     0
         -4.02060022   -8.81878494    5.73949511    h      1.000     0
         -5.09861339  -11.31927056    3.70450573    h      1.000     0
         -0.48896664   12.81648168   -3.45205721    h      1.000     0
         -1.79794213  -12.94027764    0.60607297    h      1.000     0
        -10.12925333    7.53165468   -3.63740155    h      1.000     0
          2.82646338  -12.81891943    0.59184333    h      1.000     0
         -7.98545351    5.92616226   -5.73341019    h      1.000     0
          9.10511625   -9.53291245    0.47668342    h      1.000     0
        -12.02604703   -3.44712503   -3.35382925    h      1.000     0
         11.82431877   -5.80257417    0.12009210    h      1.000     0
         -9.44282921   -2.79095542   -5.46393524    h      1.000     0
         13.05776191    1.11866118   -0.24220620    h      1.000     0
         -4.96963958  -11.84147748   -2.68157807    h      1.000     0
         11.83061156    5.58251556   -0.16119364    h      1.000     0
         -3.91830934   -9.61883830   -5.02831558    h      1.000     0
          7.26941739   10.87567625   -0.21839565    h      1.000     0
          7.61958364    6.47837803   -5.55711764    h      1.000     0
          3.03828278   12.75213651   -0.10346251    h      1.000     0
          9.61173293    8.19090454   -3.39999526    h      1.000     0
         -3.99678967   12.54651541   -0.29271858    h      1.000     0
         12.34968153   -2.37188976   -3.21094706    h      1.000     0
         -8.09435843   10.40124161   -0.50620094    h      1.000     0
          9.69047781   -2.01913458   -5.30164556    h      1.000     0
        -12.27201379    4.67512576   -0.39759838    h      1.000     0
          4.80175631   -9.30964131   -4.98086455    h      1.000     0
        -13.07032859    0.12011099   -0.30023969    h      1.000     0
          5.97484160  -11.46888018   -2.63066885    h      1.000     0
        -11.20753106   -6.61827445   -0.06400502    h      1.000     0
          0.26909700    0.23891807   -0.00187083    fe    26.000     0
          2.72993617    0.64180769    2.88436459    c      6.000     0
         -0.11920392   -2.67152473    2.47331136    c      6.000     0
          1.95261622   -3.12965104    0.81057913    c      6.000     0
          3.70998593   -1.08844446    1.06510634    c      6.000     0
          0.34884344   -0.32703600    3.76499586    c      6.000     0
         -2.72952043    0.22387585   -2.40097264    c      6.000     0
         -2.83878439    2.37685974   -0.78257339    c      6.000     0
         -0.57147208    3.81184217   -1.12799643    c      6.000     0
          0.95062673    2.54969409   -2.95940561    c      6.000     0
         -0.37599881    0.31603780   -3.75628422    c      6.000     0
         -1.38144649    0.96865472    5.55439643    c      6.000     0
          0.60902094   -1.62444638   -5.52843160    c      6.000     0
         -0.72767684    0.46678125    8.34841321    n      7.000     0
          0.14915608   -0.96192729   -8.32688923    n      7.000     0
         -0.84973425   -2.32321041    8.89439289    c      6.000     0
          1.87727284    1.44856957    8.94600131    c      6.000     0
         -2.66385244    1.85327332    9.90261847    c      6.000     0
          1.49840165    1.45153644   -9.00637806    c      6.000     0
          1.19287072   -3.11787804   -9.85977838    c      6.000     0
         -2.63860570   -0.67228897   -8.81744324    c      6.000     0
          3.57556971    2.40114272    3.47896691    h      1.000     0
         -1.77388592   -3.84285258    2.70913028    h      1.000     0
          2.14270377   -4.71471552   -0.46143333    h      1.000     0
          5.44250575   -0.86755437    0.01007224    h      1.000     0
         -4.13530659   -1.24631218   -2.56505756    h      1.000     0
         -4.34582209    2.82478152    0.51905108    h      1.000     0
         -0.07483315    5.51775464   -0.12434398    h      1.000     0
          2.79758836    3.11687649   -3.61517837    h      1.000     0
         -3.33264542    0.33773185    5.33779602    h      1.000     0
         -1.30942903    3.02046266    5.35489805    h      1.000     0
          2.65279755   -1.85489848   -5.36818282    h      1.000     0
         -0.30082550   -3.45440047   -5.25251268    h      1.000     0
          0.59256142   -3.28088582    7.78177883    h      1.000     0
         -0.49773497   -2.59279874   10.90791498    h      1.000     0
         -2.71986393   -3.01243133    8.37265840    h      1.000     0
          3.26127046    0.34869227    7.89092941    h      1.000     0
          1.97593544    3.43442607    8.40334755    h      1.000     0
          2.18665880    1.22499607   10.97192000    h      1.000     0
         -4.52763264    1.12257291    9.41497464    h      1.000     0
         -2.24541039    1.53712213   11.89612836    h      1.000     0
         -2.55490973    3.85738457    9.43472228    h      1.000     0
          3.48764076    1.26182683   -8.50197236    h      1.000     0
          1.27960915    1.74688173  -11.03494237    h      1.000     0
          0.64159982    3.00808496   -7.96648066    h      1.000     0
          3.20100710   -3.30256098   -9.43440103    h      1.000     0
          0.20187944   -4.83943745   -9.31189008    h      1.000     0
          0.89690182   -2.69953047  -11.85636852    h      1.000     0
         -3.34464518    0.91878485   -7.71955015    h      1.000     0
         -2.89592971   -0.32227389  -10.83293065    h      1.000     0
         -3.58964817   -2.40677410   -8.24175707    h      1.000     0
 
       center of nuclear mass  :    0.02627381    0.02247040   -0.00091761
       center of nuclear charge:    0.02297309    0.01963849   -0.00080919

              +--------------------------------------------------+
              |               basis set information              |
              +--------------------------------------------------+

              we will work with the 1s 3p 5d 7f 9g ... basis set
              ...i.e. with spherical basis functions...

   type   atoms  prim   cont   basis
   ---------------------------------------------------------------------------
    o       14     77     55   cc-pVQZ   [5s4p3d2f1g|21s6p3d2f1g]
    n       30     77     55   cc-pVQZ   [5s4p3d2f1g|21s6p3d2f1g]
    c       60     77     55   cc-pVQZ   [5s4p3d2f1g|21s6p3d2f1g]
    h       72     32     30   cc-pVQZ   [4s3p2d1f|6s3p2d1f]
    fe       1    712    104   cc-pVQZ   [8s7p5d3f2g1h|148s103p41d3f2g1h]
   ---------------------------------------------------------------------------
   total:  177  11024   7984
   ---------------------------------------------------------------------------

   total number of primitive shells          :  409
   total number of contracted shells         : 2306
   total number of cartesian basis functions : 9940
   total number of SCF-basis functions       : 7984


 integral neglect threshold       :  0.34E-14
 integral storage threshold THIZE :  0.10E-04
 integral storage threshold THIME :         5

 RI-J AUXILIARY BASIS SET information:

              we will work with the 1s 3p 5d 7f 9g ... basis set
              ...i.e. with spherical basis functions...

   type   atoms  prim   cont   basis
   ---------------------------------------------------------------------------
    o       14     70     49   cc-pVQZ   [6s4p3d1f1g|12s5p4d2f1g]
    n       30     70     49   cc-pVQZ   [6s4p3d1f1g|12s5p4d2f1g]
    c       60     70     49   cc-pVQZ   [6s4p3d1f1g|12s5p4d2f1g]
    h       72     16     11   cc-pVQZ   [3s1p1d|5s2p1d]
    fe       1    107     89   def2-QZVPP   [8s5p5d2f3g|19s5p5d3f3g]
   ---------------------------------------------------------------------------
   total:  177   8539   5977
   ---------------------------------------------------------------------------

   total number of primitive shells          :  115
   total number of contracted shells         : 1943
   total number of cartesian basis functions : 7326
   total number of SCF-basis functions       : 5977


 symmetry group of the molecule :   c1 

 the group has the following generators :
   c1(z)

    1 symmetry operations found

 there are 1 real representations :   a   

 maximum number of shells which are related by symmetry :  1


    mo occupation :
   irrep   mo's   occupied
    a     7984      389
 
 number of basis functions   :         7984
 number of occupied orbitals :          389
 
  
           ------------------
           density functional
           ------------------
 TPSS meta-GGA functional
 exchange:    LDA + TPSS
 correlation: LDA (PW) + TPSS
 iterations will be done with small grid
  
 spherical integration : Lebedev's spherical grid
 spherical gridsize    :           5
    i.e. gridpoints    :         590
 value for diffuse not defined
 radial integration    : Chebyshev 2nd kind (scaling 3)
 radial gridsize       :           8
 integration cells     :         177
 partition function    : becke
 partition sharpness   :           3
  

 biggest AO integral is expected to be    13.834871150
  
           ------------------------
               RI-J - INFORMATION
           ------------------------
 Contributions to RI integral batches: 
  neglected integral batches:     1853382
  direct contribution:             777724
  memory contribution:       28865
 Memory core needed for (P|Q) and Cholesky    273 MByte
 Memory core minimum needed except of (P|Q)    31 MByte
 Total minimum memory core needed (sum)       303 MByte
  
 ****************************************
 Memory allocated for RI-J  4717 MByte
 ****************************************
                                            

          ------------------------
          nuclear repulsion energy  :   28345.5302653    
          ------------------------

 
          -----------------
          -S,T+V- integrals
          -----------------

 1e-integrals will be neglected if expon. factor < 0.336213E-15
 
   Difference densities algorithm switched on.
   The maximal number of linear combinations of
   difference densities is          20 .

 automatic virtual orbital shift switched on 
      shift if e(lumo)-e(homo) < 0.10000000    


 DIIS switched on: error vector is FDS-SDF
 Max. Iterations for DIIS is     :   4
 DIIS matrix (see manual) 
    Scaling factor of diagonals  :  1.200
    threshold for scaling factor :  0.000

 scf convergence criterion : increment of total energy < .1000000D-08
                  and increment of one-electron energy < .1000000D-05


 <geterg> : there is no data group $energy 

  MOs are in ASCII format !


 reading orbital data $scfmo  from file mos . 

 orbital characterization : expanded
 
 mo provided and orthogonalized by Cholesky decomposition

 DSCF restart information will be dumped onto file mos


 Starting SCF iterations

          Overall gridpoints after grid construction =        838621

 ITERATION  ENERGY          1e-ENERGY        2e-ENERGY     RMS[dD(SAO)]   TOL
   1  -6268.6419417932    -64939.137486     30324.965279    0.000D+00 0.335D-14
                            Exc = -733.693273616     Coul =  31058.6585523    
                              N = 778.00141234    
                            current damping = 0.700
 
          max. resid. norm for Fia-block=  8.579D-01 for orbital    238a         
          max. resid. fock norm         =  1.478D+01 for orbital   7942a         

 ITERATION  ENERGY          1e-ENERGY        2e-ENERGY     RMS[dD(SAO)]   TOL
   2  -6286.8100638636    -64950.034580     30317.694251    0.183D-01 0.335D-14
                            Exc = -732.457284406     Coul =  31050.1515357    
                              N = 778.00122272    
                            current damping = 0.650
 
          Norm of current diis error:  14.458    
          max. resid. norm for Fia-block=  9.057D-01 for orbital    389a         
          max. resid. fock norm         =  1.956D+00 for orbital   7654a         

 ITERATION  ENERGY          1e-ENERGY        2e-ENERGY     RMS[dD(SAO)]   TOL
   3  -6285.3329566207    -65131.086642     30500.223420    0.356D-01 0.107D-14
                            Exc = -741.311886042     Coul =  31241.5353065    
                              N = 778.00115670    
                            current damping = 0.700
 
          Norm of current diis error:  14.112    
          max. resid. norm for Fia-block=  3.024D-01 for orbital    200a         
          max. resid. fock norm         =  5.282D-01 for orbital   7597a         

 ITERATION  ENERGY          1e-ENERGY        2e-ENERGY     RMS[dD(SAO)]   TOL
   4  -6291.4347609128    -65071.444264     30434.479237    0.164D-01 0.190D-14
                            Exc = -740.026028889     Coul =  31174.5052662    
                              N = 778.00106709    
                            current damping = 0.750
 
          Norm of current diis error:  4.7931    
          max. resid. norm for Fia-block=  1.092D-01 for orbital    389a         
          max. resid. fock norm         =  1.293D-01 for orbital    391a         

 ITERATION  ENERGY          1e-ENERGY        2e-ENERGY     RMS[dD(SAO)]   TOL
   5  -6291.9544398057    -65035.079142     30397.594436    0.483D-02 0.194D-14
                            Exc = -738.118572180     Coul =  31135.7130086    
                              N = 778.00101245    
                            current damping = 0.650
 
          Norm of current diis error:  2.7078    
          max. resid. norm for Fia-block=  3.402D-02 for orbital    389a         
          max. resid. fock norm         =  8.779D-02 for orbital   7762a         
          mo-orthogonalization: Cholesky decomposition

 ITERATION  ENERGY          1e-ENERGY        2e-ENERGY     RMS[dD(SAO)]   TOL
   6  -6292.1253819805    -65047.306957     30409.651310    0.366D-02 0.174D-14
                            Exc = -738.646228906     Coul =  31148.2975384    
                              N = 778.00102503    
                            current damping = 0.700
 
          Norm of current diis error: 0.65011    
          max. resid. norm for Fia-block=  2.773D-02 for orbital    387a         
          max. resid. fock norm         =  2.820D-02 for orbital    387a         

 ITERATION  ENERGY          1e-ENERGY        2e-ENERGY     RMS[dD(SAO)]   TOL
   7  -6292.1243189572    -65054.456339     30416.801755    0.884D-03 0.154D-14
                            Exc = -738.922106586     Coul =  31155.7238611    
                              N = 778.00101160    
                            current damping = 0.750
 
          Norm of current diis error: 0.70756    
          max. resid. norm for Fia-block=  6.712D-03 for orbital    388a         
          max. resid. fock norm         =  1.037D-02 for orbital   7743a         

 ITERATION  ENERGY          1e-ENERGY        2e-ENERGY     RMS[dD(SAO)]   TOL
   8  -6292.1371389409    -65050.596004     30412.928600    0.113D-03 0.145D-14
                            Exc = -738.930212400     Coul =  31151.8588122    
                              N = 778.00099447    
                            current damping = 0.800
 
          Norm of current diis error: 0.22429    
          max. resid. norm for Fia-block=  7.783D-03 for orbital    388a         
          max. resid. fock norm         =  7.853D-03 for orbital    388a         

 ITERATION  ENERGY          1e-ENERGY        2e-ENERGY     RMS[dD(SAO)]   TOL
   9  -6292.1366079630    -65049.229656     30411.562782    0.437D-03 0.139D-14
                            Exc = -738.812598895     Coul =  31150.3753812    
                              N = 778.00099602    
                            current damping = 0.850
 
          Norm of current diis error: 0.25424    
          max. resid. norm for Fia-block=  4.320D-03 for orbital    389a         
          max. resid. fock norm         =  6.570D-03 for orbital   7664a         

 ITERATION  ENERGY          1e-ENERGY        2e-ENERGY     RMS[dD(SAO)]   TOL
  10  -6292.1380161261    -65050.802310     30413.134029    0.482D-04 0.134D-14
                            Exc = -738.874578139     Coul =  31152.0086069    
                              N = 778.00099904    
                            current damping = 0.900
 
          Norm of current diis error: 0.10103    
          max. resid. norm for Fia-block=  1.263D-03 for orbital    389a         
          max. resid. fock norm         =  1.850D-03 for orbital   7664a         
          mo-orthogonalization: Cholesky decomposition

 ITERATION  ENERGY          1e-ENERGY        2e-ENERGY     RMS[dD(SAO)]   TOL
  11  -6292.1382330567    -65050.131875     30412.463377    0.471D-04 0.132D-14
                            Exc = -738.858376896     Coul =  31151.3217538    
                              N = 778.00099678    
                            current damping = 0.950
 
          Norm of current diis error: 0.18128E-01
          max. resid. norm for Fia-block=  5.546D-04 for orbital    387a         
          max. resid. fock norm         =  7.004D-04 for orbital   7815a         

 ITERATION  ENERGY          1e-ENERGY        2e-ENERGY     RMS[dD(SAO)]   TOL
  12  -6292.1382400934    -65050.253407     30412.584902    0.116D-04 0.128D-14
                            Exc = -738.863470359     Coul =  31151.4483719    
                              N = 778.00099604    
                            current damping = 1.000
 
          Norm of current diis error: 0.85198E-02
          max. resid. norm for Fia-block=  1.090D-04 for orbital    389a         
          max. resid. fock norm         =  4.393D-04 for orbital   7818a         

 ITERATION  ENERGY          1e-ENERGY        2e-ENERGY     RMS[dD(SAO)]   TOL
  13  -6292.1382417036    -65050.222908     30412.554401    0.186D-05 0.124D-14
                            Exc = -738.864612790     Coul =  31151.4190139    
                              N = 778.00099565    
                            current damping = 1.050
 
          Norm of current diis error: 0.38215E-02
          max. resid. norm for Fia-block=  5.990D-05 for orbital    349a         
          max. resid. fock norm         =  2.107D-04 for orbital   7815a         

 ITERATION  ENERGY          1e-ENERGY        2e-ENERGY     RMS[dD(SAO)]   TOL
  14  -6292.1382420756    -65050.226760     30412.558253    0.250D-05 0.121D-14
                            Exc = -738.864598487     Coul =  31151.4228510    
                              N = 778.00099559    
                            current damping = 1.100
 
          Norm of current diis error: 0.15246E-02
          max. resid. norm for Fia-block=  4.072D-05 for orbital    388a         
          max. resid. fock norm         =  1.149D-04 for orbital   7815a         

 ITERATION  ENERGY          1e-ENERGY        2e-ENERGY     RMS[dD(SAO)]   TOL
  15  -6292.1382420738    -65050.214440     30412.545933    0.173D-05 0.119D-14
                            Exc = -738.864088616     Coul =  31151.4100214    
                              N = 778.00099549    
                            current damping = 1.150
 
          Norm of current diis error: 0.17480E-02
          max. resid. norm for Fia-block=  5.924D-05 for orbital    387a         
          max. resid. fock norm         =  8.817D-05 for orbital   7688a         
          mo-orthogonalization: Cholesky decomposition

 ITERATION  ENERGY          1e-ENERGY        2e-ENERGY     RMS[dD(SAO)]   TOL
  16  -6292.1382421174    -65050.231397     30412.562890    0.672D-06 0.116D-14
                            Exc = -738.864705892     Coul =  31151.4275957    
                              N = 778.00099547    
                            current damping = 1.200
 
          Norm of current diis error: 0.12319E-02
          max. resid. norm for Fia-block=  2.059D-05 for orbital    389a         
          max. resid. fock norm         =  3.690D-05 for orbital   7814a         

 ITERATION  ENERGY          1e-ENERGY        2e-ENERGY     RMS[dD(SAO)]   TOL
  17  -6292.1382421612    -65050.225374     30412.556866    0.459D-06 0.109D-14
                            Exc = -738.864557419     Coul =  31151.4214234    
                              N = 778.00099544    
                            current damping = 1.250
 
          Norm of current diis error: 0.38651E-03
          max. resid. norm for Fia-block=  6.692D-06 for orbital    349a         
          max. resid. fock norm         =  2.520D-05 for orbital   7815a         

 ITERATION  ENERGY          1e-ENERGY        2e-ENERGY     RMS[dD(SAO)]   TOL
  18  -6292.1382421655    -65050.225428     30412.556921    0.286D-06 0.108D-14
                            Exc = -738.864540770     Coul =  31151.4214614    
                              N = 778.00099543    
                            current damping = 1.300
 
          Norm of current diis error: 0.22558E-03
          max. resid. norm for Fia-block=  3.075D-06 for orbital    349a         
          max. resid. fock norm         =  1.511D-05 for orbital   7815a         

 ITERATION  ENERGY          1e-ENERGY        2e-ENERGY     RMS[dD(SAO)]   TOL
  19  -6292.1382421663    -65050.224805     30412.556298    0.131D-06 0.105D-14
                            Exc = -738.864537945     Coul =  31151.4208359    
                              N = 778.00099542    
                            current damping = 1.350
 
          Norm of current diis error: 0.13778E-03
          max. resid. norm for Fia-block=  6.741D-06 for orbital    388a         
          max. resid. fock norm         =  1.098D-05 for orbital   7688a         

 DENSITY CONVERGED !


 ITERATION  ENERGY          1e-ENERGY        2e-ENERGY     RMS[dD(SAO)]   TOL
  20  -6292.1382421641    -65050.226709     30412.558201    0.791D-07 0.102D-14
                            Exc = -738.864597294     Coul =  31151.4227987    
                              N = 778.00099542    
                            current damping = 1.400
 
          Norm of current diis error: 0.18019E-03
          max. resid. norm for Fia-block=  1.329D-06 for orbital    388a         
          max. resid. fock norm         =  5.411D-06 for orbital   7815a         
          mo-orthogonalization: Cholesky decomposition

 DENSITY CONVERGED !


 ITERATION  ENERGY          1e-ENERGY        2e-ENERGY     RMS[dD(SAO)]   TOL
  21  -6292.1382421627    -65050.226363     30412.557855    0.288D-07 0.100D-14
                            Exc = -738.864585178     Coul =  31151.4224405    
                              N = 778.00099542    
                            current damping = 1.450
 
          Norm of current diis error: 0.11086E-03
          max. resid. norm for Fia-block=  1.403D-06 for orbital    388a         
          max. resid. fock norm         =  3.235D-06 for orbital   7815a         

 DENSITY CONVERGED !


 ITERATION  ENERGY          1e-ENERGY        2e-ENERGY     RMS[dD(SAO)]   TOL
  22  -6292.1382421653    -65050.225968     30412.557460    0.313D-07 0.335D-14
                            Exc = -738.864573486     Coul =  31151.4220337    
                              N = 778.00099542    
                            current damping = 1.300
 
          Norm of current diis error: 0.49746E-04
          max. resid. norm for Fia-block=  9.953D-07 for orbital    388a         
          max. resid. fock norm         =  2.275D-06 for orbital   7815a         

 DENSITY CONVERGED !


 ITERATION  ENERGY          1e-ENERGY        2e-ENERGY     RMS[dD(SAO)]   TOL
  23  -6292.1382421685    -65050.225650     30412.557143    0.241D-07 0.213D-14
                            Exc = -738.864567901     Coul =  31151.4217105    
                              N = 778.00099542    
                            current damping = 1.150
 
          Norm of current diis error: 0.15643E-04
          max. resid. norm for Fia-block=  3.248D-07 for orbital    388a         
          max. resid. fock norm         =  1.548D-06 for orbital   7815a         

 DENSITY CONVERGED !


 ITERATION  ENERGY          1e-ENERGY        2e-ENERGY     RMS[dD(SAO)]   TOL
  24  -6292.1382421691    -65050.225612     30412.557105    0.908D-08 0.158D-14
                            Exc = -738.864564850     Coul =  31151.4216697    
                              N = 778.00099541    
                            current damping = 1.000
 
          Norm of current diis error: 0.10228E-04
          max. resid. norm for Fia-block=  2.267D-07 for orbital    387a         
          max. resid. fock norm         =  9.342D-07 for orbital   7815a         

 DENSITY CONVERGED !


 ITERATION  ENERGY          1e-ENERGY        2e-ENERGY     RMS[dD(SAO)]   TOL
  25  -6292.1382421650    -65050.225660     30412.557152    0.522D-08 0.132D-14
                            Exc = -738.864567138     Coul =  31151.4217194    
                              N = 778.00099541    
                            current damping = 1.050
 
          Norm of current diis error: 0.56508E-05
          max. resid. norm for Fia-block=  1.219D-07 for orbital    389a         
          max. resid. fock norm         =  6.294D-07 for orbital   7984a         
          mo-orthogonalization: Cholesky decomposition

 ENERGY & DENSITY CONVERGED !

          Overall gridpoints after grid construction =       2633039

 ITERATION  ENERGY          1e-ENERGY        2e-ENERGY     RMS[dD(SAO)]   TOL
  26  -6292.1367044937    -65050.225623     30412.558654    0.256D-08 0.121D-14
                            Exc = -738.863028168     Coul =  31151.4216818    
                              N = 778.00008085    
                            current damping = 1.100
 
          Norm of current diis error: 0.36468E-05
          max. resid. norm for Fia-block=  5.541D-08 for orbital    225a         
          max. resid. fock norm         =  6.961D-07 for orbital   7984a         

 End of SCF iterations

   convergence criteria satisfied after   26 iterations


                  ------------------------------------------ 
                 |  total energy      =  -6292.13670449365  |
                  ------------------------------------------ 
                 :  kinetic energy    =   6269.69773924668  :
                 :  potential energy  = -12561.83444374033  :
                 :  virial theorem    =      1.99643380837  :
                 :  wavefunction norm =      1.00000000000  :
                  .......................................... 


 <geterg> : there is no data group $energy 


 <skperg> : $end is missing 


 orbitals $scfmo  will be written to file mos

    irrep                385a        386a        387a        388a        389a   
 eigenvalues H         -0.36090    -0.35533    -0.31552    -0.30617    -0.30519
            eV          -9.8206     -9.6690     -8.5859     -8.3313     -8.3047
 occupation              2.0000      2.0000      2.0000      2.0000      2.0000 

    irrep                390a        391a        392a        393a        394a   
 eigenvalues H         -0.18724    -0.18205    -0.16499    -0.16079    -0.15979
            eV          -5.0950     -4.9538     -4.4895     -4.3755     -4.3481
 
 
 
 
 ==============================================================================
                           electrostatic moments
 ==============================================================================

 reference point for electrostatic moments:    0.00000   0.00000   0.00000

 
              nuc           elec       ->  total
 ------------------------------------------------------------------------------
                          charge      
 ------------------------------------------------------------------------------
         780.000000    -778.000000       2.000000
 
 ------------------------------------------------------------------------------
                       dipole moment  
 ------------------------------------------------------------------------------
   x      17.919007     -18.276266      -0.357259
   y      15.318026     -15.622814      -0.304788
   z      -0.631169       0.644181       0.013012
 
   | dipole moment | =     0.4698 a.u. =     1.1941 debye 
 
 ------------------------------------------------------------------------------
                     quadrupole moment
 ------------------------------------------------------------------------------
  xx   30143.721967  -30412.223000    -268.501034
  yy   30260.570932  -30529.111359    -268.540427
  zz   14049.406946  -14469.871801    -420.464855
  xy    -414.319456     415.321337       1.001881
  xz     145.092495    -151.303327      -6.210832
  yz    -537.509399     541.062982       3.553583
 
     1/3  trace=    -319.168772
     anisotropy=     152.458640
 
 ==============================================================================
 
 


    ------------------------------------------------------------------------
         total  cpu-time :   2 days  4 hours 53 minutes and 21 seconds
         total wall-time :   2 days  4 hours 59 minutes and 35 seconds
    ------------------------------------------------------------------------


   ****  ridft : all done  ****


    2016-02-20 21:39:54.304 

