 operating system is UNIX !

 dscf (gplogin2.gp.local) : TURBOMOLE V7.3 ( 22118 ) 1 Jul 2018 at 20:38:15
 Copyright (C) 2018 TURBOMOLE GmbH, Karlsruhe


    2019-02-08 17:43:16.997 

no calculation of wave function, analysis of properties only


                             d s c f - program

                   idea & directorship : reinhart ahlrichs
                   program development : marco haeser
                                         michael baer
                           dft version : oliver treutler


                          quantum chemistry group
                          universitaet  karlsruhe
                                  germany




                          References             
                                                 
          TURBOMOLE:                             
              R. Ahlrichs, M. Baer, M. Haeser, H. Horn, and
              C. Koelmel
              Electronic structure calculations on workstation
              computers: the program system TURBOMOLE
              Chem. Phys. Lett. 162: 165 (1989)
          Density Functional:                              
              O. Treutler and R. Ahlrichs                      
              Efficient Molecular Numerical Integration Schemes
              J. Chem. Phys. 102: 346 (1995)                   
          Parallel Version:                                
              Performance of parallel TURBOMOLE for Density    
              Functional Calculations                          
              M. v. Arnim and R. Ahlrichs                      
              J. Comp. Chem. 19: 1746 (1998)                   
                                         




              +--------------------------------------------------+
              | Atomic coordinate, charge and isotop information |
              +--------------------------------------------------+

                    atomic coordinates            atom    charge  isotop
          1.95806938   -1.08805188    1.63099956    c      6.000     0
         -2.17818590    1.15171721    1.26777472    c      6.000     0
         -1.95806679    1.08805592   -1.63100045    c      6.000     0
          2.17818930   -1.15171365   -1.26777487    c      6.000     0
         -0.49977414   -1.31076461   -2.38967456    c      6.000     0
          0.49977657    1.31076905    2.38967485    c      6.000     0
          2.07299215    3.59061736   -1.46596002    c      6.000     0
         -2.07299085   -3.59061677    1.46596121    c      6.000     0
         -1.84460766   -3.70855718   -1.42580744    c      6.000     0
          1.84460264    3.70856514    1.42580694    c      6.000     0
          0.58137303   -3.45179822    2.63362201    c      6.000     0
         -0.58136696    3.45179752   -2.63362890    c      6.000     0
         -3.57623810   -1.22240557    2.21487437    c      6.000     0
          3.57624547    1.22240911   -2.21486714    c      6.000     0
         -3.25678849   -6.31622308    5.30703730    c      6.000     0
          3.25706436    6.31603771   -5.30707711    c      6.000     0
         -2.42555838   -8.43134827    1.30139619    c      6.000     0
          2.42533468    8.43137013   -1.30164740    c      6.000     0
         -6.28424327   -5.97804932    1.85284542    c      6.000     0
          6.28418225    5.97820076   -1.85255424    c      6.000     0
          3.49608810    6.05516334   -2.47201752    n      7.000     0
         -3.49608807   -6.05516346    2.47201739    n      7.000     0
          3.85136815   -1.05007396    2.47204499    h      1.000     0
         -3.85136520    1.05007735   -2.47204656    h      1.000     0
         -0.38598498   -1.43185187   -4.45520911    h      1.000     0
          0.38598632    1.43185614    4.45520931    h      1.000     0
         -3.27580715    2.81056864    1.84894547    h      1.000     0
          3.27581040   -2.81056556   -1.84894441    h      1.000     0
          0.47312205   -3.31119719    4.69312775    h      1.000     0
         -0.47311036    3.31118813   -4.69313408    h      1.000     0
         -5.45950214   -1.24579924    1.36292788    h      1.000     0
          5.45950565    1.24580320   -1.36291156    h      1.000     0
         -0.73364608   -5.35124470   -2.01009379    h      1.000     0
          0.73363313    5.35124955    2.01008792    h      1.000     0
          3.70794599    3.84709391    2.31694143    h      1.000     0
         -3.70795234   -3.84707293   -2.31694078    h      1.000     0
         -1.69223732    5.13466636   -2.16461202    h      1.000     0
          1.69224640   -5.13466147    2.16459343    h      1.000     0
          3.80442778    1.10184492   -4.26910714    h      1.000     0
         -3.80440872   -1.10183579    4.26911514    h      1.000     0
         -1.32084609   -6.81910095    5.78426119    h      1.000     0
          1.32115503    6.81883413   -5.78452433    h      1.000     0
         -7.20203817   -4.55332505    3.01759182    h      1.000     0
          7.20216002    4.55346516   -3.01714425    h      1.000     0
         -2.95949863   -8.51430414   -0.68274433    h      1.000     0
          2.95909379    8.51448087    0.68253607    h      1.000     0
          3.79855548    4.54502082   -6.20386870    h      1.000     0
         -3.79814674   -4.54525065    6.20399697    h      1.000     0
          0.37841186    8.43379568   -1.51232233    h      1.000     0
         -0.37861719   -8.43389411    1.51189005    h      1.000     0
          6.52809765    5.56078034    0.14761826    h      1.000     0
         -6.52834906   -5.56053419   -0.14728405    h      1.000     0
         -4.53468771   -7.81958634    5.90250944    h      1.000     0
          4.53498438    7.81939554   -5.90251928    h      1.000     0
         -3.23282242  -10.03818764    2.30844051    h      1.000     0
          3.23260535   10.03818588   -2.30872472    h      1.000     0
         -7.06693138   -7.83657653    2.27832656    h      1.000     0
          7.06683286    7.83674446   -2.27803309    h      1.000     0
 
       center of nuclear mass  :    0.00000034    0.00000040    0.00000001
       center of nuclear charge:    0.00000027    0.00000033    0.00000001

              +--------------------------------------------------+
              |               basis set information              |
              +--------------------------------------------------+

              we will work with the 1s 3p 5d 7f 9g ... basis set
              ...i.e. with spherical basis functions...

   type   atoms  prim   cont   basis
   ---------------------------------------------------------------------------
    c       20     50     30   cc-pVTZ   [4s3p2d1f|18s5p2d1f]
    n        2     50     30   cc-pVTZ   [4s3p2d1f|18s5p2d1f]
    h       36     16     14   cc-pVTZ   [3s2p1d|5s2p1d]
   ---------------------------------------------------------------------------
   total:   58   1676   1164
   ---------------------------------------------------------------------------

   total number of primitive shells          :   60
   total number of contracted shells         :  436
   total number of cartesian basis functions : 1310
   total number of SCF-basis functions       : 1164


 integral neglect threshold       :  0.25E-13
 integral storage threshold THIZE :  0.10E-04
 integral storage threshold THIME :         5


 DENSITY CONVERGENCE CHECK SWITCHED ON !
 SCF CONVERGENCE IF RMS(delta[D]) <     0.1000000000E-06


 symmetry group of the molecule :   c1 

 the group has the following generators :
   c1(z)

    1 symmetry operations found

 there are 1 real representations :   a   

 maximum number of shells which are related by symmetry :  1


    mo occupation :
   irrep   mo's   occupied
    a     1164       84
 
 number of basis functions   :                   1164
 number of occupied orbitals :                     84
 

 automatic virtual orbital shift switched on 
      shift if e(lumo)-e(homo) < 0.10000000    


          ------------------------
          nuclear repulsion energy  :   2173.06594926    
          ------------------------


         -----------------
         -S,T+V- integrals
         -----------------

 1e-integrals will be neglected if expon. factor < 0.255112E-14
 
   Difference densities algorithm switched on.
   The maximal number of linear combinations of
   difference densities is                    20 .

 DIIS switched on: error vector is FDS-SDF
 Max. Iterations for DIIS is     :   5
 DIIS matrix (see manual) 
    Scaling factor of diagonals  :  1.200
    threshold for scaling factor :  0.000

 scf convergence criterion : increment of total energy < .1000000D-08
                  and increment of one-electron energy < .1000000D-05

  MOs are in ASCII format !


 reading orbital data $scfmo  from file mos
 orbital characterization : scfconv=9
 
 
 
 ==============================================================================
                           electrostatic moments
 ==============================================================================

 reference point for electrostatic moments:    0.00000   0.00000   0.00000

 
              nuc           elec       ->  total
 ------------------------------------------------------------------------------
                          charge      
 ------------------------------------------------------------------------------
         170.000000    -168.000000       2.000000
 
 ------------------------------------------------------------------------------
                       dipole moment  
 ------------------------------------------------------------------------------
   x       0.000047      -0.000051      -0.000005
   y       0.000056      -0.000064      -0.000008
   z       0.000001       0.000001       0.000003
 
   | dipole moment | =     0.0000 a.u. =     0.0000 debye 
 
 ------------------------------------------------------------------------------
                     quadrupole moment
 ------------------------------------------------------------------------------
  xx    1774.534126   -1838.201240     -63.667113
  yy    3966.026998   -3984.176980     -18.149982
  zz    1226.600764   -1301.650699     -75.049935
  xy    1897.971120   -1858.547421      39.423699
  xz    -774.882768     758.788788     -16.093980
  yz   -1342.046576    1314.171856     -27.874721
 
     1/3  trace=     -52.289010
     anisotropy=     102.421796



 ==============================================================================
                  MULLIKEN POPULATION ANALYSIS (CAO-BASIS)
 ==============================================================================

         BRUTTO POPULATIONS  
 
       values displayed are larger than   0.010000
 
 
 atomic populations from total density:
 
 atom      charge    n(s)      n(p)      n(d)      n(f)      n(g)
     1c     -0.10801   3.17000   2.78643   0.14261   0.00897
     2c     -0.10796   3.17000   2.78637   0.14262   0.00897
     3c     -0.10801   3.17000   2.78643   0.14261   0.00897
     4c     -0.10796   3.17000   2.78637   0.14262   0.00897
     5c     -0.10798   3.17001   2.78639   0.14261   0.00897
     6c     -0.10798   3.17000   2.78639   0.14261   0.00897
     7c      0.14306   3.13350   2.52197   0.18965   0.01181
     8c      0.14305   3.13350   2.52199   0.18965   0.01181
     9c     -0.30082   3.22747   2.94240   0.12377   0.00718
    10c     -0.30082   3.22747   2.94240   0.12377   0.00718
    11c     -0.30084   3.22748   2.94241   0.12377   0.00718
    12c     -0.30085   3.22749   2.94241   0.12377   0.00718
    13c     -0.30081   3.22748   2.94239   0.12376   0.00718
    14c     -0.30082   3.22748   2.94239   0.12376   0.00718
    15c     -0.23277   3.27206   2.85011   0.10400   0.00659
    16c     -0.23277   3.27206   2.85011   0.10400   0.00659
    17c     -0.23277   3.27206   2.85012   0.10400   0.00659
    18c     -0.23277   3.27206   2.85012   0.10400   0.00659
    19c     -0.23275   3.27206   2.85011   0.10400   0.00659
    20c     -0.23275   3.27206   2.85011   0.10400   0.00659
    21n     -0.04350   3.39137   3.54575   0.10242   0.00396
    22n     -0.04350   3.39137   3.54575   0.10242   0.00396
    23h      0.15262   0.80951   0.03495   0.00292
    24h      0.15262   0.80951   0.03495   0.00292
    25h      0.15259   0.80954   0.03495   0.00291
    26h      0.15260   0.80954   0.03495   0.00291
    27h      0.15258   0.80956   0.03494   0.00291
    28h      0.15258   0.80956   0.03494   0.00291
    29h      0.15442   0.81188   0.03116   0.00255
    30h      0.15441   0.81188   0.03116   0.00255
    31h      0.15444   0.81185   0.03116   0.00255
    32h      0.15444   0.81185   0.03116   0.00255
    33h      0.15435   0.81194   0.03116   0.00255
    34h      0.15435   0.81194   0.03116   0.00255
    35h      0.16293   0.80482   0.02978   0.00247
    36h      0.16293   0.80482   0.02978   0.00247
    37h      0.16286   0.80488   0.02978   0.00247
    38h      0.16286   0.80488   0.02978   0.00247
    39h      0.16283   0.80492   0.02978   0.00247
    40h      0.16283   0.80492   0.02978   0.00247
    41h      0.15383   0.81664   0.02736   0.00217
    42h      0.15383   0.81664   0.02736   0.00217
    43h      0.15382   0.81665   0.02736   0.00217
    44h      0.15382   0.81665   0.02736   0.00217
    45h      0.15383   0.81664   0.02736   0.00217
    46h      0.15383   0.81664   0.02736   0.00217
    47h      0.15489   0.81597   0.02701   0.00213
    48h      0.15489   0.81597   0.02701   0.00213
    49h      0.15487   0.81599   0.02701   0.00213
    50h      0.15487   0.81599   0.02701   0.00213
    51h      0.15487   0.81599   0.02701   0.00213
    52h      0.15487   0.81599   0.02701   0.00213
    53h      0.16313   0.80751   0.02720   0.00216
    54h      0.16313   0.80751   0.02720   0.00216
    55h      0.16314   0.80750   0.02720   0.00216
    56h      0.16313   0.80750   0.02720   0.00216
    57h      0.16316   0.80748   0.02720   0.00216
    58h      0.16316   0.80749   0.02720   0.00216
 
 moments (from total density versus population analysis)
 <charge> =             2.000000            2.000000
 <x   >   =            -0.000005           -0.000014
 <y   >   =            -0.000008           -0.000026
 <z   >   =             0.000003            0.000010
 
 
 ==============================================================================
 


    ------------------------------------------------------------------------
         total  cpu-time :   4.58 seconds
         total wall-time :   5.14 seconds
    ------------------------------------------------------------------------

   ****  dscf : all done  ****


    2019-02-08 17:43:22.108 

