Using Slurm to start processes with PMI2
STARTING ridft ON 8 PROCESSORS!
RUNNING PROGRAM /beegfs/modfac/apps/TURBOMOLE/7.0_intel_GA/bin/em64t-unknown-linux-gnu_mpi/ridft_mpi.
PLEASE WAIT UNTIL ridft HAS FINISHED.
Look for the output in slave1.output.
  this is node-proc. number 1 running on node c-7-11.local
  the total number of node-proc. spawned is            8
  parallel platform: MPP, or cluster with fast interconnect

 ridft (c-7-11.local) : TURBOMOLE V7.0.2( ) 15 Jan 2016 at 17:47:42
 Copyright (C) 2016 TURBOMOLE GmbH, Karlsruhe


    2018-02-01 18:23:21.044 



                                  r i d f t

                        DFT program with RI approximation 
                                for coulomb part 




                                                 
                                 References:     
                                                 
          TURBOMOLE:                             
              R. Ahlrichs, M. Baer, M. Haeser, H. Horn, and
              C. Koelmel
              Electronic structure calculations on workstation
              computers: the program system TURBOMOLE
              Chem. Phys. Lett. 162: 165 (1989)
          Density Functional:                              
              O. Treutler and R. Ahlrichs                      
              Efficient Molecular Numerical Integration Schemes
              J. Chem. Phys. 102: 346 (1995)                   
          Parallel Version:                                
              Performance of parallel TURBOMOLE for Density    
              Functional Calculations                          
              M. v. Arnim and R. Ahlrichs                      
              J. Comp. Chem. 19: 1746 (1998)                   
          RI-J Method:                                     
              Auxiliary Basis Sets to approximate Coulomb      
              Potentials                                       
              Chem. Phys. Lett. 240: 283 (1995)                
              K. Eichkorn, O. Treutler, H. Oehm, M. Haeser     
              and R. Ahlrichs                                  
              Chem. Phys. Lett. 242: 652 (1995)                
                                                           
              Auxiliary Basis Sets for Main Row Atoms and their
              Use to approximate Coulomb Potentials            
              K. Eichkorn, F. Weigend, O. Treutler and         
              R. Ahlrichs                                      
              Theo. Chem. Acc. 97: 119 (1997)                   
                                                           
              Accurate Coulomb-fitting basis sets for H to Rn 
              F. Weigend                                        
              Phys. Chem. Chem. Phys. 8: 1057 (2006)            
                                                           
          Multipole accelerated RI-J (MARI-J):             
              Fast evaluation of the Coulomb potential for     
              electron densities using multipole accelerated   
              resolution of identity approximation             
              M. Sierka, A. Hogekamp and R. Ahlrichs           
              J. Chem. Phys. 118: 9136 (2003)                  
          RI-JK Method:                                     
              A fully direct RI-HF algorithm: Implementation,
              optimised auxiliary basis sets, demonstration of
              accuracy and efficiency                         
              F. Weigend                                      
              Phys. Chem. Chem. Phys. 4: 4285 (2002)           
          Two-component HF and DFT with spin-orbit coupling:  
              Self-consistent treatment of spin-orbit         
              interactions with efficient Hartree-Fock and    
              density functional methods                      
              M. K. Armbruster, F. Weigend, C. van Wüllen and 
              W. Klopper                                      
              Phys. Chem. Chem. Phys. 10: 1748 (2008)         
          Relativistic all-electron 2c calculations           
              An efficient implementation of two-component    
              relativistic exact-decoupling methods for large 
              molecules                                       
              D. Peng, N. Middendorf, F. Weigend, M. Reiher   
              J. Chem. Phys. 138, 184105 (2013)               
                                         


 


              +--------------------------------------------------+
              |      general information about current run       |
              +--------------------------------------------------+

 

 SCF run will be profiled !


 DENSITY CONVERGENCE CHECK SWITCHED ON !
 SCF CONVERGENCE IF RMS(delta[D]) <     0.1000000000E-06

 TPSS meta-GGA functional
 exchange:    LDA + TPSS
 correlation: LDA (PW) + TPSS
 A DFT calculation using the RI-J approximation will be carried out.
 Allocatable memory for RI due to $ricore (MB):        5000


              +--------------------------------------------------+
              | Atomic coordinate, charge and isotop information |
              +--------------------------------------------------+

                    atomic coordinates            atom    charge  isotop
          9.39004915    8.90249981   -3.87960775    c      6.000     0
          8.09936621    6.31924419   -4.11393379    c      6.000     0
          5.21753385    6.43829693   -3.83236460    c      6.000     0
          3.94574817    3.84748241   -4.06669064    c      6.000     0
         12.27188151    8.77210871   -4.13661050    c      6.000     0
         13.57012336   11.35158488   -3.88716666    c      6.000     0
         16.45384544   11.20985542   -4.11393379    c      6.000     0
         17.75964620   13.78177269   -3.84748241    c      6.000     0
         20.64525800   13.62870487   -4.05724201    c      6.000     0
         21.95861766   16.19684268   -3.78512144    c      6.000     0
         24.84422947   16.03243651   -3.99677077    c      6.000     0
         26.16892749   18.59679487   -3.73409884    c      6.000     0
         29.05075984   18.42294007   -3.96464543    c      6.000     0
         30.38301676   20.98540871   -3.72276048    c      6.000     0
         33.26295939   20.80966418   -3.98732214    c      6.000     0
         34.59710604   23.37213281   -3.77000364    c      6.000     0
         37.47515894   23.20205746   -4.06480091    c      6.000     0
         38.79040833   25.77397473   -3.86637967    c      6.000     0
         40.84265091   25.58878157   -4.06480091    h      1.000     0
         38.12144528   27.06276795   -5.34414550    h      1.000     0
         37.91924458   22.33845262   -5.89972499    h      1.000     0
         38.23104939   21.92271287   -2.61727069    h      1.000     0
         34.14735122   24.23006848   -1.93318983    h      1.000     0
         33.83932586   24.65903631   -5.21564413    h      1.000     0
         33.72783202   19.95172851   -5.82035649    h      1.000     0
         34.00751149   19.52465040   -2.53601247    h      1.000     0
         29.91247496   21.83389574   -1.88783641    h      1.000     0
         29.64413385   22.27609165   -5.17218043    h      1.000     0
         29.53641946   17.57256331   -5.79767978    h      1.000     0
         29.78019413   17.13225712   -2.51144603    h      1.000     0
         25.67759869   19.43961273   -1.90106449    h      1.000     0
         25.44516238   19.89125727   -5.18729823    h      1.000     0
         25.34500689   15.19150838   -5.82791539    h      1.000     0
         25.56232540   14.73797411   -2.54168165    h      1.000     0
         21.45217106   17.03777081   -1.95586655    h      1.000     0
         21.24052173   17.49130509   -5.24210029    h      1.000     0
         21.15359433   12.79344592   -5.89027636    h      1.000     0
         21.36713338   12.33424247   -2.60404261    h      1.000     0
         17.24942014   14.62270082   -2.02011724    h      1.000     0
         17.03588109   15.07245564   -5.30635098    h      1.000     0
         16.95462286   10.37459647   -5.95074759    h      1.000     0
         17.18894890    9.91728275   -2.66451385    h      1.000     0
         13.06934594   12.19440274   -2.05791176    h      1.000     0
         12.82935072   12.63281920   -5.34414550    h      1.000     0
         12.75754112    7.93684976   -5.97531403    h      1.000     0
         13.02777196    7.48520521   -2.69285974    h      1.000     0
          8.90438954    9.74531767   -2.04468368    h      1.000     0
          8.57179774    5.48209551   -5.95641677    h      1.000     0
          8.87037447    5.03612014   -2.67585220    h      1.000     0
          4.75077150    7.27544561   -1.99177134    h      1.000     0
          4.44652559    7.72142098   -5.27044618    h      1.000     0
          1.89539531    3.99110159   -3.82858515    h      1.000     0
          4.31424476    3.00844400   -5.92618115    h      1.000     0
          4.66384410    2.53979192   -2.63238850    h      1.000     0
          8.63037925   10.17995468   -5.33091742    h      1.000     0
         38.40679392   26.66214601   -2.03334532    h      1.000     0
 
       center of nuclear mass  :   21.32731007   14.86855541   -3.93534284
       center of nuclear charge:   21.32759151   14.86815812   -3.93571708

              +--------------------------------------------------+
              |               basis set information              |
              +--------------------------------------------------+

              we will work with the 1s 3p 5d 7f 9g ... basis set
              ...i.e. with spherical basis functions...

   type   atoms  prim   cont   basis
   ---------------------------------------------------------------------------
    c       18     50     30   cc-pVTZ   [4s3p2d1f|18s5p2d1f]
    h       38     16     14   cc-pVTZ   [3s2p1d|5s2p1d]
   ---------------------------------------------------------------------------
   total:   56   1508   1072
   ---------------------------------------------------------------------------

   total number of primitive shells          :   34
   total number of contracted shells         :  408
   total number of cartesian basis functions : 1200
   total number of SCF-basis functions       : 1072


 integral neglect threshold       :  0.28E-13
 integral storage threshold THIZE :  0.10E-04
 integral storage threshold THIME :         5

 RI-J AUXILIARY BASIS SET information:

              we will work with the 1s 3p 5d 7f 9g ... basis set
              ...i.e. with spherical basis functions...

   type   atoms  prim   cont   basis
   ---------------------------------------------------------------------------
    c       18     70     49   cc-pVTZ   [6s4p3d1f1g|12s5p4d2f1g]
    h       38     16     11   cc-pVTZ   [3s1p1d|5s2p1d]
   ---------------------------------------------------------------------------
   total:   56   1868   1300
   ---------------------------------------------------------------------------

   total number of primitive shells          :   32
   total number of contracted shells         :  460
   total number of cartesian basis functions : 1554
   total number of SCF-basis functions       : 1300


 symmetry group of the molecule :   c1 

 the group has the following generators :
   c1(z)

    1 symmetry operations found

 there are 1 real representations :   a   

 maximum number of shells which are related by symmetry :  1


    mo occupation :
   irrep   mo's   occupied
    a     1072       73
 
 number of basis functions   :         1072
 number of occupied orbitals :           73
 
  
           ------------------
           density functional
           ------------------
 TPSS meta-GGA functional
 exchange:    LDA + TPSS
 correlation: LDA (PW) + TPSS
 grinp -> nfun, dfgga, dfhybrid 
           5 F F
 iterations will be done with small grid
  
 spherical integration : Lebedev's spherical grid
 spherical gridsize    :           5
    i.e. gridpoints    :         590
 value for diffuse not defined
 radial integration    : Chebyshev 2nd kind (scaling 3)
 radial gridsize       :           8
 integration cells     :          56
 partition function    : becke
 partition sharpness   :           3
  

 <rddim> : input of entry tasksize
           from data group '$pardft' failed !

               Default values taken

 <rddim> : input of entry memdiv
           from data group '$pardft' failed !

               Default values taken
  RIDFT: memory allocation for DFT gridpoints
  MEMORY is divided by 1 as DEFAULT
 Each node can hold at most  the            1 -th part
 of the gridpoints    

 biggest AO integral is expected to be     3.593180334
  
           ------------------------
               RI-J - INFORMATION
           ------------------------
 
 
 **************************************************
 *      MEMORY ALLOCATION FOR PARALLEL RI-DFT     *
 **************************************************
 
 
MEMORY FOR (MU NU/ ALPHA), SEQUENTIAL RUN               4987 MByte
 
            DIFFERENCE IN MEMORY NEED:       DIAG./SLAVE  
 
      TOTAL DIFFERENCE :                     60 MByte
 
      difference in xcore:                   14 MByte
      difference in fatmat:                  18 MByte
      getcor calls skipped by slaves:        29 MByte
 
 
           Integral memory available for diagonal.      4987 MByte
 
           Integral memory available for slave             0 MByte
 
         MEMORY FOR (MU NU/ ALPHA) ON DIAGONALIZER      4987 MByte
 
         MEMORY FOR (MU NU/ ALPHA) ON ONE SLAVE            0 MByte
 
         TOTAL MEMORY FOR (MU NU/ ALPHA),ALL NODES      4987 MByte
 
 Contributions to RI integral batches: 
  neglected integral batches:       47682
  direct contribution:                  0
  memory contribution:       35754
 Memory core needed for (P|Q) and Cholesky     13 MByte
 Memory core minimum needed except of (P|Q)     3 MByte
 Total minimum memory core needed (sum)        16 MByte
  
 ****************************************
 Memory allocated for RI-J  5003 MByte
 ****************************************
                                            

          ------------------------
          nuclear repulsion energy  :   1177.21181332    
          ------------------------

 
          -----------------
          -S integrals
          -----------------

 1e-integrals will be neglected if expon. factor < 0.278497E-14
 
          -----------------
          -T+V integrals
          -----------------

 1e-integrals will be neglected if expon. factor < 0.278497E-14
 Difference densities >>NOT<< switched on in parallel ridft!

 automatic virtual orbital shift switched on 
      shift if e(lumo)-e(homo) < 0.10000000    


 DIIS switched on: error vector is FDS-SDF
 Max. Iterations for DIIS is     :   4
 DIIS matrix (see manual) 
    Scaling factor of diagonals  :  1.200
    threshold for scaling factor :  0.000

 scf convergence criterion : increment of total energy < .1000000D-08
                  and increment of one-electron energy < .1000000D-05


 <geterg> : there is no data group $energy 

  MOs are in ASCII format !


 reading orbital data $scfmo  from file mos . 

 orbital characterization : expanded
 
 mo provided and orthogonalized by Cholesky decomposition

 DSCF restart information will be dumped onto file mos


 Starting SCF iterations


 ITERATION  ENERGY          1e-ENERGY        2e-ENERGY     RMS[dD(SAO)]   TOL
   1  -706.93408276341    -3260.8327029     1376.6868068    0.000D+00 0.278D-13
                            Exc = -108.659834006     Coul =  1485.34664084    
                              N = 146.00036006    
                            current damping = 0.700
 
          max. resid. norm for Fia-block=  2.372D-01 for orbital     19a         
          max. resid. fock norm         =  4.082D+00 for orbital   1035a         

 ITERATION  ENERGY          1e-ENERGY        2e-ENERGY     RMS[dD(SAO)]   TOL
   2  -708.67659788813    -3279.6276414     1393.7392302    0.129D-02 0.278D-13
                            Exc = -110.735638857     Coul =  1504.47486906    
                              N = 146.00029411    
                            current damping = 0.650
 
          Norm of current diis error:  3.3515    
          max. resid. norm for Fia-block=  1.061D-01 for orbital     21a         
          max. resid. fock norm         =  1.195D-01 for orbital     20a         

 ITERATION  ENERGY          1e-ENERGY        2e-ENERGY     RMS[dD(SAO)]   TOL
   3  -709.06461357586    -3283.7137682     1397.4373413    0.818D-03 0.278D-13
                            Exc = -111.459492881     Coul =  1508.89683422    
                              N = 146.00023313    
                            current damping = 0.550
 
          Norm of current diis error:  1.6199    
          max. resid. norm for Fia-block=  4.963D-02 for orbital     32a         
          max. resid. fock norm         =  5.232D-02 for orbital     21a         

 ITERATION  ENERGY          1e-ENERGY        2e-ENERGY     RMS[dD(SAO)]   TOL
   4  -709.17832147154    -3287.6758461     1401.2857113    0.464D-03 0.278D-13
                            Exc = -112.000624568     Coul =  1513.28633585    
                              N = 146.00018673    
                            current damping = 0.450
 
          Norm of current diis error: 0.60170    
          max. resid. norm for Fia-block=  1.949D-02 for orbital     32a         
          max. resid. fock norm         =  1.994D-02 for orbital     21a         

 ITERATION  ENERGY          1e-ENERGY        2e-ENERGY     RMS[dD(SAO)]   TOL
   5  -709.19691459515    -3288.5671098     1402.1583819    0.241D-03 0.278D-13
                            Exc = -112.183946860     Coul =  1514.34232876    
                              N = 146.00016667    
                            current damping = 0.350
 
          Norm of current diis error: 0.21088    
          max. resid. norm for Fia-block=  7.014D-03 for orbital     32a         
          max. resid. fock norm         =  7.078D-03 for orbital     32a         
          mo-orthogonalization: Cholesky decomposition

 ITERATION  ENERGY          1e-ENERGY        2e-ENERGY     RMS[dD(SAO)]   TOL
   6  -709.19933845240    -3289.3137406     1402.9025888    0.953D-04 0.278D-13
                            Exc = -112.278935443     Coul =  1515.18152424    
                              N = 146.00015817    
                            current damping = 0.250
 
          Norm of current diis error: 0.55393E-01
          max. resid. norm for Fia-block=  1.706D-03 for orbital     22a         
          max. resid. fock norm         =  2.379D-03 for orbital    193a         

 ITERATION  ENERGY          1e-ENERGY        2e-ENERGY     RMS[dD(SAO)]   TOL
   7  -709.19948494749    -3289.1910330     1402.7797348    0.360D-04 0.278D-13
                            Exc = -112.282611926     Coul =  1515.06234668    
                              N = 146.00015633    
                            current damping = 0.300
 
          Norm of current diis error: 0.30021E-01
          max. resid. norm for Fia-block=  6.300D-04 for orbital     34a         
          max. resid. fock norm         =  9.757D-04 for orbital   1062a         

 ITERATION  ENERGY          1e-ENERGY        2e-ENERGY     RMS[dD(SAO)]   TOL
   8  -709.19951844399    -3289.2890233     1402.8776915    0.836D-05 0.278D-13
                            Exc = -112.291742933     Coul =  1515.16943443    
                              N = 146.00015575    
                            current damping = 0.350
 
          Norm of current diis error: 0.48322E-02
          max. resid. norm for Fia-block=  1.576D-04 for orbital     33a         
          max. resid. fock norm         =  2.228D-04 for orbital   1065a         

 ITERATION  ENERGY          1e-ENERGY        2e-ENERGY     RMS[dD(SAO)]   TOL
   9  -709.19951922721    -3289.3149448     1402.9036122    0.196D-05 0.278D-13
                            Exc = -112.294040960     Coul =  1515.19765321    
                              N = 146.00015555    
                            current damping = 0.200
 
          Norm of current diis error: 0.25206E-02
          max. resid. norm for Fia-block=  4.805D-05 for orbital     68a         
          max. resid. fock norm         =  1.133D-04 for orbital      6a         

 ITERATION  ENERGY          1e-ENERGY        2e-ENERGY     RMS[dD(SAO)]   TOL
  10  -709.19951945575    -3289.3071629     1402.8958301    0.914D-06 0.278D-13
                            Exc = -112.293642815     Coul =  1515.18947293    
                              N = 146.00015555    
                            current damping = 0.250
 
          Norm of current diis error: 0.27195E-03
          max. resid. norm for Fia-block=  1.012D-05 for orbital     73a         
          max. resid. fock norm         =  2.881D-05 for orbital     12a         
          mo-orthogonalization: Cholesky decomposition

 ITERATION  ENERGY          1e-ENERGY        2e-ENERGY     RMS[dD(SAO)]   TOL
  11  -709.19951945657    -3289.3063706     1402.8950378    0.176D-06 0.278D-13
                            Exc = -112.293611419     Coul =  1515.18864926    
                              N = 146.00015555    
                            current damping = 0.100
 
          Norm of current diis error: 0.25550E-03
          max. resid. norm for Fia-block=  4.426D-06 for orbital     73a         
          max. resid. fock norm         =  1.236D-05 for orbital     12a         

 DENSITY CONVERGED !


 ITERATION  ENERGY          1e-ENERGY        2e-ENERGY     RMS[dD(SAO)]   TOL
  12  -709.19951945884    -3289.3067558     1402.8954231    0.672D-07 0.278D-13
                            Exc = -112.293644117     Coul =  1515.18906718    
                              N = 146.00015554    
                            current damping = 0.150
 
          Norm of current diis error: 0.13551E-04
          max. resid. norm for Fia-block=  4.554D-07 for orbital     73a         
          max. resid. fock norm         =  1.273D-06 for orbital     14a         

 DENSITY CONVERGED !


 ITERATION  ENERGY          1e-ENERGY        2e-ENERGY     RMS[dD(SAO)]   TOL
  13  -709.19951945884    -3289.3068032     1402.8954704    0.871D-08 0.278D-13
                            Exc = -112.293647455     Coul =  1515.18911784    
                              N = 146.00015554    
                            current damping = 0.050
 
          Norm of current diis error: 0.13533E-04
          max. resid. norm for Fia-block=  2.458D-07 for orbital     73a         
          max. resid. fock norm         =  7.265D-07 for orbital     10a         

 ENERGY & DENSITY CONVERGED !


 ITERATION  ENERGY          1e-ENERGY        2e-ENERGY     RMS[dD(SAO)]   TOL
  14  -709.19910050352    -3289.3067847     1402.8958708    0.358D-08 0.278D-13
                            Exc = -112.293227190     Coul =  1515.18909802    
                              N = 146.00006567    
                            current damping = 0.100
 
          Norm of current diis error: 0.34102E-05
          max. resid. norm for Fia-block=  6.810D-08 for orbital     72a         
          max. resid. fock norm         =  1.922D-07 for orbital      6a         

 End of SCF iterations

   convergence criteria satisfied after   14 iterations


                  ------------------------------------------ 
                 |  total energy      =   -709.19910050352  |
                  ------------------------------------------ 
                 :  kinetic energy    =    704.56771578919  :
                 :  potential energy  =  -1413.76681629271  :
                 :  virial theorem    =      1.99346955642  :
                 :  wavefunction norm =      1.00000000000  :
                  .......................................... 


 <geterg> : there is no data group $energy 


 <skperg> : $end is missing 


 orbitals $scfmo  will be written to file mos

    irrep                 69a         70a         71a         72a         73a   
 eigenvalues H         -0.28337    -0.28324    -0.28274    -0.26597    -0.24777
            eV          -7.7110     -7.7073     -7.6939     -7.2374     -6.7421
 occupation              2.0000      2.0000      2.0000      2.0000      2.0000 

    irrep                 74a         75a         76a         77a         78a   
 eigenvalues H          0.02693     0.02936     0.03327     0.03859     0.04467
            eV           0.7328      0.7989      0.9054      1.0502      1.2154
 
 
 ! grave: sending quit signal to master process
 
 
 
 
 ==============================================================================
                           electrostatic moments
 ==============================================================================

 reference point for electrostatic moments:    0.00000   0.00000   0.00000

 
              nuc           elec       ->  total
 ------------------------------------------------------------------------------
                          charge      
 ------------------------------------------------------------------------------
         146.000000    -146.000000      -0.000000
 
 ------------------------------------------------------------------------------
                       dipole moment  
 ------------------------------------------------------------------------------
   x    3113.828361   -3113.828859      -0.000498
   y    2170.751086   -2170.751203      -0.000117
   z    -574.614694     574.616756       0.002062
 
   | dipole moment | =     0.0021 a.u. =     0.0054 debye 
 
 ------------------------------------------------------------------------------
                     quadrupole moment
 ------------------------------------------------------------------------------
  xx   84127.374039  -84220.572184     -93.198145
  yy   38490.441307  -38584.227385     -93.786078
  zz    2364.375663   -2453.454799     -89.079136
  xy   56544.837568  -56546.110451      -1.272882
  xz  -12192.470218   12192.681266       0.211048
  yz   -8486.740573    8486.230806      -0.509767
 
     1/3  trace=     -92.021120
     anisotropy=       5.050494
 
 ==============================================================================
 

    ridft profiling
  --------------------------------------------------------------------
             module   cpu total (s)       %  wall total (s)       %

               RIDFT           324.6  100.00           324.5  100.00
         Ridft_b_scf            19.4    5.98            19.4    5.98
        b_scf_prelim             0.0    0.00             0.0    0.00
        b_scf_molinp             0.0    0.00             0.0    0.00
         b_scf_init0             0.0    0.00             0.0    0.00
        b_scf_auxbas             0.0    0.00             0.0    0.00
      b_scf_symmetry             0.0    0.00             0.0    0.00
         b_scf_cosmo             0.0    0.00             0.0    0.00
        b_scf_params             0.5    0.14             0.5    0.14
          b_scf_ri-j            15.5    4.77            15.5    4.77
    b_scf_ri-j_auxpq            15.5    4.76            15.5    4.76
     ri-j_auxpq_chol             0.3    0.10             0.3    0.10
         b_scf_1elec             0.4    0.11             0.4    0.11
       b_scf_moinput             3.1    0.95             3.1    0.95
     moinput_orthmos             3.0    0.92             3.0    0.92
    b_scf_dft-dstmax             0.0    0.00             0.0    0.00
           Ridft_scf           305.1   93.97           304.9   93.96
          Scf_b_loop             0.0    0.00             0.0    0.00
                noga             0.0    0.00             0.0    0.00
            Scf_loop           304.3   93.73           304.1   93.72
     scf_loop_mkdmat             1.0    0.31             1.0    0.31
       scf_loop_ri-j            13.7    4.21            13.7    4.21
      parlp1.bc.dens             0.8    0.24             0.8    0.24
        parlp1.gs.gp             0.0    0.00             0.0    0.00
        parlp2.bc.gq             0.0    0.00             0.0    0.00
        scf_loop_dft           254.4   78.37           254.3   78.36
      pardft.bc.dens             0.0    0.00             0.0    0.00
        dft_grid_con             1.3    0.39             1.3    0.39
          dft_xcmrhf           249.6   76.89           249.5   76.88
          dft_getval             8.6    2.65             8.6    2.66
          funct2 dst             0.3    0.08             0.3    0.08
      funct2 f2loop1             2.4    0.74             2.4    0.74
      funct2 f2loop2             3.6    1.10             3.5    1.09
          funct2 s+c             2.0    0.63             2.1    0.64
        funct2 cmf_2             1.7    0.53             1.8    0.56
          dft_mkdens           126.8   39.07           126.7   39.06
        dft_mgga-fun             0.7    0.21             0.7    0.21
          dft_mkfock           113.1   34.85           113.1   34.86
     pardft.red.fock            29.8    9.17            29.8    9.17
     scf_loop_energy             0.0    0.00             0.0    0.00
     scf_loop_mkfock             0.0    0.01             0.0    0.01
       scf_loop_diis            13.7    4.23            13.7    4.23
       scf_loop_diag             9.9    3.05             9.9    3.06
         diag_tritrn             2.7    0.85             2.7    0.85
          diag_rdiag             7.1    2.19             7.1    2.19
     scf_loop_modump             9.4    2.88             9.4    2.88
      scf_loop_ortho             1.8    0.57             1.8    0.57
          Scf_a_loop             0.8    0.24             0.8    0.24
         Ridft_a_scf             0.2    0.05             0.2    0.06
         a_scf_fanal             0.1    0.04             0.2    0.05
 


    ------------------------------------------------------------------------
         total  cpu-time :  5 minutes and 26 seconds
         total wall-time :  5 minutes and 26 seconds
    ------------------------------------------------------------------------


   ****  ridft : all done  ****


    2018-02-01 18:28:46.618 

