 this is node-proc. number 0 running on node c-8-16.local
 the total number of node-proc. spawned is  33

 dscfserver (c-8-16.local) : TURBOMOLE V7.2 ( 21471 ) 7 Nov 2017 at 16:15:16
 Copyright (C) 2017 TURBOMOLE GmbH, Karlsruhe


    2018-02-21 07:26:03.551 

 
    0:05:30 ---- Start global counter...
    2:18:03 ---- ... finished.
 
    2:22:12 ---- Start global counter...
    4:24:55 ---- ... finished.
 
    4:29:14 ---- Start global counter...
    6:23:30 ---- ... finished.
 
    6:27:41 ---- Start global counter...
    8:10:31 ---- ... finished.
 
    8:14:50 ---- Start global counter...
    9:46:17 ---- ... finished.
 
    9:52:14 ---- Start global counter...
   11:08:08 ---- ... finished.
 
   11:12:22 ---- Start global counter...
   12:18:54 ---- ... finished.
 
   12:23:08 ---- Start global counter...
   13:22:20 ---- ... finished.
 
   13:26:35 ---- Start global counter...
   14:15:02 ---- ... finished.
 
   14:19:19 ---- Start global counter...
   15:00:44 ---- ... finished.
 
   15:06:33 ---- Start global counter...
   15:39:54 ---- ... finished.
 
   15:44:07 ---- Start global counter...
   16:11:43 ---- ... finished.
 
   16:16:02 ---- Start global counter...
   16:35:49 ---- ... finished.
 
   16:38:55 ---- ByeBye Tag received


 ! Total wall-clock time in seconds  :    59935.2
 ! Time (sec) spent in global counter:    56163.5
 ! So-called SERIAL wall-clock time  :     3771.7

  *** Regular termination of server ***
 total turnaround time of dscfserver 59937.61 sec
 cpu elapsed by dscfserver process   56207.75 sec 

   ***  dscf server : all done  ***


    2018-02-22 00:05:01.161 

