Using Slurm to start processes with PMI2
STARTING ridft ON 8 PROCESSORS!
RUNNING PROGRAM /modfac/apps/TURBOMOLE/7.0_intel_GA/bin/em64t-unknown-linux-gnu_mpi/ridft_mpi.
PLEASE WAIT UNTIL ridft HAS FINISHED.
Look for the output in slave1.output.
  this is node-proc. number 1 running on node c-7-8.local
  the total number of node-proc. spawned is            8
  parallel platform: MPP, or cluster with fast interconnect

 ridft (c-7-8.local) : TURBOMOLE V7.0.2( ) 15 Jan 2016 at 17:47:42
 Copyright (C) 2016 TURBOMOLE GmbH, Karlsruhe


    2016-01-30 11:33:16.726 



                                  r i d f t

                        DFT program with RI approximation 
                                for coulomb part 




                                                 
                                 References:     
                                                 
          TURBOMOLE:                             
              R. Ahlrichs, M. Baer, M. Haeser, H. Horn, and
              C. Koelmel
              Electronic structure calculations on workstation
              computers: the program system TURBOMOLE
              Chem. Phys. Lett. 162: 165 (1989)
          Density Functional:                              
              O. Treutler and R. Ahlrichs                      
              Efficient Molecular Numerical Integration Schemes
              J. Chem. Phys. 102: 346 (1995)                   
          Parallel Version:                                
              Performance of parallel TURBOMOLE for Density    
              Functional Calculations                          
              M. v. Arnim and R. Ahlrichs                      
              J. Comp. Chem. 19: 1746 (1998)                   
          RI-J Method:                                     
              Auxiliary Basis Sets to approximate Coulomb      
              Potentials                                       
              Chem. Phys. Lett. 240: 283 (1995)                
              K. Eichkorn, O. Treutler, H. Oehm, M. Haeser     
              and R. Ahlrichs                                  
              Chem. Phys. Lett. 242: 652 (1995)                
                                                           
              Auxiliary Basis Sets for Main Row Atoms and their
              Use to approximate Coulomb Potentials            
              K. Eichkorn, F. Weigend, O. Treutler and         
              R. Ahlrichs                                      
              Theo. Chem. Acc. 97: 119 (1997)                   
                                                           
              Accurate Coulomb-fitting basis sets for H to Rn 
              F. Weigend                                        
              Phys. Chem. Chem. Phys. 8: 1057 (2006)            
                                                           
          Multipole accelerated RI-J (MARI-J):             
              Fast evaluation of the Coulomb potential for     
              electron densities using multipole accelerated   
              resolution of identity approximation             
              M. Sierka, A. Hogekamp and R. Ahlrichs           
              J. Chem. Phys. 118: 9136 (2003)                  
          RI-JK Method:                                     
              A fully direct RI-HF algorithm: Implementation,
              optimised auxiliary basis sets, demonstration of
              accuracy and efficiency                         
              F. Weigend                                      
              Phys. Chem. Chem. Phys. 4: 4285 (2002)           
          Two-component HF and DFT with spin-orbit coupling:  
              Self-consistent treatment of spin-orbit         
              interactions with efficient Hartree-Fock and    
              density functional methods                      
              M. K. Armbruster, F. Weigend, C. van Wüllen and 
              W. Klopper                                      
              Phys. Chem. Chem. Phys. 10: 1748 (2008)         
          Relativistic all-electron 2c calculations           
              An efficient implementation of two-component    
              relativistic exact-decoupling methods for large 
              molecules                                       
              D. Peng, N. Middendorf, F. Weigend, M. Reiher   
              J. Chem. Phys. 138, 184105 (2013)               
                                         


 


              +--------------------------------------------------+
              |      general information about current run       |
              +--------------------------------------------------+

 

 SCF run will be profiled !


 DENSITY CONVERGENCE CHECK SWITCHED ON !
 SCF CONVERGENCE IF RMS(delta[D]) <     0.1000000000E-06

 PBE functional
 exchange:    LDA + PBE
 correlation: LDA (PW) + PBE
 A DFT calculation using the RI-J approximation will be carried out.
 Allocatable memory for RI due to $ricore (MB):        8000


              +--------------------------------------------------+
              | Atomic coordinate, charge and isotop information |
              +--------------------------------------------------+

                    atomic coordinates            atom    charge  isotop
          4.41838757   -2.61487074  -11.98726985    c      6.000     0
          2.83810409   -1.33048058  -10.28751789    c      6.000     0
          2.83810409    1.33048058  -10.28751789    c      6.000     0
          4.41838757    2.61487074  -11.98726985    c      6.000     0
          5.95528294    1.31742257  -13.68222191    c      6.000     0
          5.95528294   -1.31742257  -13.68222191    c      6.000     0
          1.33579071    2.86796176   -8.48214913    c      6.000     0
          2.60772758    4.56771373   -6.92174557    c      6.000     0
          1.37044829    6.32434645   -5.37247250    c      6.000     0
         -1.37044829    6.32434645   -5.37247250    c      6.000     0
         -2.60772758    4.56771373   -6.92174557    c      6.000     0
         -1.33579071    2.86796176   -8.48214913    c      6.000     0
          2.78885783    8.05371042   -3.73099969    c      6.000     0
          1.35098411    9.91335212   -2.60489299    c      6.000     0
         -1.35098411    9.91335212   -2.60489299    c      6.000     0
         -2.78885783    8.05371042   -3.73099969    c      6.000     0
         -2.17055833   11.27879263   -0.45508385    c      6.000     0
          0.00000000   12.11514762    0.87569909    c      6.000     0
          2.17055833   11.27879263   -0.45508385    c      6.000     0
          0.00000000   12.57410541    3.45500519    c      6.000     0
         -2.47682625   12.52075844    4.60783261    c      6.000     0
         -4.60635863   11.71121866    3.30382710    c      6.000     0
         -4.48416894   10.86318516    0.71008349    c      6.000     0
         -6.14648543    9.20495048   -0.66879298    c      6.000     0
         -5.33333627    7.86122292   -2.77908794    c      6.000     0
          2.47682625   12.52075844    4.60783261    c      6.000     0
          4.60635863   11.71121866    3.30382710    c      6.000     0
          4.48416894   10.86318516    0.71008349    c      6.000     0
          6.14648543    9.20495048   -0.66879298    c      6.000     0
          5.33333627    7.86122292   -2.77908794    c      6.000     0
         -2.83810409    1.33048058  -10.28751789    c      6.000     0
         -2.83810409   -1.33048058  -10.28751789    c      6.000     0
         -4.41838757   -2.61487074  -11.98726985    c      6.000     0
         -5.95528294   -1.31742257  -13.68222191    c      6.000     0
         -5.95528294    1.31742257  -13.68222191    c      6.000     0
         -4.41838757    2.61487074  -11.98726985    c      6.000     0
          1.33579071   -2.86796176   -8.48214913    c      6.000     0
          2.60772758   -4.56771373   -6.92174557    c      6.000     0
          1.37044829   -6.32434645   -5.37247250    c      6.000     0
         -1.37044829   -6.32434645   -5.37247250    c      6.000     0
         -2.60772758   -4.56771373   -6.92174557    c      6.000     0
         -1.33579071   -2.86796176   -8.48214913    c      6.000     0
         -2.78885783   -8.05371042   -3.73099969    c      6.000     0
         -1.35098411   -9.91335212   -2.60489299    c      6.000     0
          1.35098411   -9.91335212   -2.60489299    c      6.000     0
          2.78885783   -8.05371042   -3.73099969    c      6.000     0
          2.17055833  -11.27879263   -0.45508385    c      6.000     0
          0.00000000  -12.11514762    0.87569909    c      6.000     0
         -2.17055833  -11.27879263   -0.45508385    c      6.000     0
         -5.33333627   -7.86122292   -2.77908794    c      6.000     0
         -6.14648543   -9.20495048   -0.66879298    c      6.000     0
         -4.48416894  -10.86318516    0.71008349    c      6.000     0
         -4.60635863  -11.71121866    3.30382710    c      6.000     0
         -2.47682625  -12.52075844    4.60783261    c      6.000     0
          0.00000000  -12.57410541    3.45500519    c      6.000     0
          5.33333627   -7.86122292   -2.77908794    c      6.000     0
          6.14648543   -9.20495048   -0.66879298    c      6.000     0
          4.48416894  -10.86318516    0.71008349    c      6.000     0
          4.60635863  -11.71121866    3.30382710    c      6.000     0
          2.47682625  -12.52075844    4.60783261    c      6.000     0
         -8.02878493    8.82001327    0.05890276    h      1.000     0
         -6.62392473    6.48557788   -3.59047965    h      1.000     0
          6.62392473    6.48557788   -3.59047965    h      1.000     0
          8.02878493    8.82001327    0.05890276    h      1.000     0
          6.37175968   11.53634340    4.34024739    h      1.000     0
          2.66681931   12.94551218    6.60912818    h      1.000     0
         -2.66681931   12.94551218    6.60912818    h      1.000     0
         -6.37175968   11.53634340    4.34024739    h      1.000     0
         -6.37175968  -11.53634340    4.34024739    h      1.000     0
         -2.66681931  -12.94551218    6.60912818    h      1.000     0
          2.66681931  -12.94551218    6.60912818    h      1.000     0
          6.37175968  -11.53634340    4.34024739    h      1.000     0
          8.02878493   -8.82001327    0.05890276    h      1.000     0
          6.62392473   -6.48557788   -3.59047965    h      1.000     0
         -6.62392473   -6.48557788   -3.59047965    h      1.000     0
         -8.02878493   -8.82001327    0.05890276    h      1.000     0
          4.66078274    4.56215793   -6.95940781    h      1.000     0
         -4.66078274    4.56215793   -6.95940781    h      1.000     0
          4.66078274   -4.56215793   -6.95940781    h      1.000     0
         -4.66078274   -4.56215793   -6.95940781    h      1.000     0
         -4.40961924    4.66820936  -11.97084813    h      1.000     0
         -7.14193646    2.35843491  -14.99418318    h      1.000     0
         -7.14193646   -2.35843491  -14.99418318    h      1.000     0
         -4.40961924   -4.66820936  -11.97084813    h      1.000     0
          4.40961924    4.66820936  -11.97084813    h      1.000     0
          7.14193646    2.35843491  -14.99418318    h      1.000     0
          7.14193646   -2.35843491  -14.99418318    h      1.000     0
          4.40961924   -4.66820936  -11.97084813    h      1.000     0
 
       center of nuclear mass  :   -0.00000000    0.00000000   -3.74722059
       center of nuclear charge:    0.00000000    0.00000000   -3.74863375

              +--------------------------------------------------+
              |               basis set information              |
              +--------------------------------------------------+

              we will work with the 1s 3p 5d 7f 9g ... basis set
              ...i.e. with spherical basis functions...

   type   atoms  prim   cont   basis
   ---------------------------------------------------------------------------
    c       60     77     55   cc-pVQZ   [5s4p3d2f1g|21s6p3d2f1g]
    h       28     32     30   cc-pVQZ   [4s3p2d1f|6s3p2d1f]
   ---------------------------------------------------------------------------
   total:   88   5516   4140
   ---------------------------------------------------------------------------

   total number of primitive shells          :   45
   total number of contracted shells         : 1180
   total number of cartesian basis functions : 5180
   total number of SCF-basis functions       : 4140


 integral neglect threshold       :  0.64E-14
 integral storage threshold THIZE :  0.10E-04
 integral storage threshold THIME :         5

 RI-J AUXILIARY BASIS SET information:

              we will work with the 1s 3p 5d 7f 9g ... basis set
              ...i.e. with spherical basis functions...

   type   atoms  prim   cont   basis
   ---------------------------------------------------------------------------
    c       60     70     49   cc-pVQZ   [6s4p3d1f1g|12s5p4d2f1g]
    h       28     16     11   cc-pVQZ   [3s1p1d|5s2p1d]
   ---------------------------------------------------------------------------
   total:   88   4648   3248
   ---------------------------------------------------------------------------

   total number of primitive shells          :   32
   total number of contracted shells         : 1040
   total number of cartesian basis functions : 3996
   total number of SCF-basis functions       : 3248


 symmetry group of the molecule :   c1 

 the group has the following generators :
   c1(z)

    1 symmetry operations found

 there are 1 real representations :   a   

 maximum number of shells which are related by symmetry :  1


    mo occupation :
   irrep   mo's   occupied
    a     4140      194
 
 number of basis functions   :         4140
 number of occupied orbitals :          194
 
  
           ------------------
           density functional
           ------------------
 PBE functional
 exchange:    LDA + PBE
 correlation: LDA (PW) + PBE
 grinp -> nfun, dfgga, dfhybrid 
           6 T F
 iterations will be done with small grid
  
 spherical integration : Lebedev's spherical grid
 spherical gridsize    :           5
    i.e. gridpoints    :         590
 value for diffuse not defined
 radial integration    : Chebyshev 2nd kind (scaling 3)
 radial gridsize       :           8
 integration cells     :          88
 partition function    : becke
 partition sharpness   :           3
  

 <rddim> : input of entry tasksize
           from data group '$pardft' failed !

               Default values taken

 <rddim> : input of entry memdiv
           from data group '$pardft' failed !

               Default values taken
  RIDFT: memory allocation for DFT gridpoints
  MEMORY is divided by 1 as DEFAULT
 Each node can hold at most  the            1 -th part
 of the gridpoints    

 biggest AO integral is expected to be     3.537514283
  
           ------------------------
               RI-J - INFORMATION
           ------------------------
 
 
 **************************************************
 *      MEMORY ALLOCATION FOR PARALLEL RI-DFT     *
 **************************************************
 
 
MEMORY FOR (MU NU/ ALPHA), SEQUENTIAL RUN               7912 MByte
 
            DIFFERENCE IN MEMORY NEED:       DIAG./SLAVE  
 
      TOTAL DIFFERENCE :                    785 MByte
 
      difference in xcore:                   89 MByte
      difference in fatmat:                 230 MByte
      getcor calls skipped by slaves:       467 MByte
 
 
           Integral memory available for diagonal.      7912 MByte
 
           Integral memory available for slave             0 MByte
 
         MEMORY FOR (MU NU/ ALPHA) ON DIAGONALIZER      7912 MByte
 
         MEMORY FOR (MU NU/ ALPHA) ON ONE SLAVE            0 MByte
 
         TOTAL MEMORY FOR (MU NU/ ALPHA),ALL NODES      7912 MByte
 
 Contributions to RI integral batches: 
  neglected integral batches:      469730
  direct contribution:             167070
  memory contribution:       59990
 Memory core needed for (P|Q) and Cholesky     81 MByte
 Memory core minimum needed except of (P|Q)    10 MByte
 Total minimum memory core needed (sum)        91 MByte
     number of direct tasks:         160
  
 ****************************************
 Memory allocated for RI-J  8002 MByte
 ****************************************
                                            

          ------------------------
          nuclear repulsion energy  :   7311.76284060    
          ------------------------

 
          -----------------
          -S integrals
          -----------------

 1e-integrals will be neglected if expon. factor < 0.645166E-15
 
          -----------------
          -T+V integrals
          -----------------

 1e-integrals will be neglected if expon. factor < 0.645166E-15
 Difference densities >>NOT<< switched on in parallel ridft!

 automatic virtual orbital shift switched on 
      shift if e(lumo)-e(homo) < 0.10000000    


 DIIS switched on: error vector is FDS-SDF
 Max. Iterations for DIIS is     :   4
 DIIS matrix (see manual) 
    Scaling factor of diagonals  :  1.200
    threshold for scaling factor :  0.000

 scf convergence criterion : increment of total energy < .1000000D-08
                  and increment of one-electron energy < .1000000D-05


 <geterg> : there is no data group $energy 

  MOs are in ASCII format !


 reading orbital data $scfmo  from file mos . 

 orbital characterization : expanded
 
 mo provided and orthogonalized by Cholesky decomposition

 DSCF restart information will be dumped onto file mos


 Starting SCF iterations


 ITERATION  ENERGY          1e-ENERGY        2e-ENERGY     RMS[dD(SAO)]   TOL
   1  -2294.6804468744    -17574.503326     7968.0600381    0.000D+00 0.644D-14
                            Exc = -325.761737618     Coul =  8293.82177570    
                              N = 388.00142494    
                            current damping = 0.700
 
          max. resid. norm for Fia-block=  2.672D-01 for orbital     45a         
          max. resid. fock norm         =  6.600D+00 for orbital   3765a         

 ITERATION  ENERGY          1e-ENERGY        2e-ENERGY     RMS[dD(SAO)]   TOL
   2  -2299.8462059473    -17643.309033     8031.6999869    0.136D-01 0.644D-14
                            Exc = -330.982693031     Coul =  8362.68267990    
                              N = 388.00114607    
                            current damping = 0.650
 
          Norm of current diis error:  8.5929    
          max. resid. norm for Fia-block=  1.231D-01 for orbital     62a         
          max. resid. fock norm         =  1.569D-01 for orbital    227a         

 ITERATION  ENERGY          1e-ENERGY        2e-ENERGY     RMS[dD(SAO)]   TOL
   3  -2300.9259766804    -17657.956447     8045.2676296    0.384D-02 0.644D-14
                            Exc = -332.353474190     Coul =  8377.62110379    
                              N = 388.00099600    
                            current damping = 0.550
 
          Norm of current diis error:  4.1535    
          max. resid. norm for Fia-block=  6.008D-02 for orbital     62a         
          max. resid. fock norm         =  7.069D-02 for orbital     62a         

 ITERATION  ENERGY          1e-ENERGY        2e-ENERGY     RMS[dD(SAO)]   TOL
   4  -2301.2456287033    -17672.273303     8059.2648337    0.121D-02 0.644D-14
                            Exc = -333.214429636     Coul =  8392.47926333    
                              N = 388.00091775    
                            current damping = 0.450
 
          Norm of current diis error:  1.6621    
          max. resid. norm for Fia-block=  2.466D-02 for orbital     62a         
          max. resid. fock norm         =  3.932D-02 for orbital     28a         

 ITERATION  ENERGY          1e-ENERGY        2e-ENERGY     RMS[dD(SAO)]   TOL
   5  -2301.2861632533    -17672.389897     8059.3408927    0.965D-03 0.644D-14
                            Exc = -333.532035240     Coul =  8392.87292791    
                              N = 388.00088551    
                            current damping = 0.300
 
          Norm of current diis error:  1.1925    
          max. resid. norm for Fia-block=  1.408D-02 for orbital    193a         
          max. resid. fock norm         =  2.378D-02 for orbital   4125a         
          mo-orthogonalization: Cholesky decomposition

 ITERATION  ENERGY          1e-ENERGY        2e-ENERGY     RMS[dD(SAO)]   TOL
   6  -2301.3106445107    -17677.466690     8064.3932051    0.464D-03 0.644D-14
                            Exc = -333.691757907     Coul =  8398.08496305    
                              N = 388.00086782    
                            current damping = 0.200
 
          Norm of current diis error: 0.57667    
          max. resid. norm for Fia-block=  6.015D-03 for orbital    190a         
          max. resid. fock norm         =  9.550D-03 for orbital   4125a         

 ITERATION  ENERGY          1e-ENERGY        2e-ENERGY     RMS[dD(SAO)]   TOL
   7  -2301.3170397678    -17676.764466     8063.6845857    0.200D-03 0.644D-14
                            Exc = -333.700635862     Coul =  8397.38522158    
                              N = 388.00087019    
                            current damping = 0.250
 
          Norm of current diis error: 0.20599    
          max. resid. norm for Fia-block=  2.337D-03 for orbital    192a         
          max. resid. fock norm         =  4.570D-03 for orbital   4139a         

 ITERATION  ENERGY          1e-ENERGY        2e-ENERGY     RMS[dD(SAO)]   TOL
   8  -2301.3172615012    -17676.210321     8063.1302187    0.764D-04 0.644D-14
                            Exc = -333.697916399     Coul =  8396.82813506    
                              N = 388.00086892    
                            current damping = 0.150
 
          Norm of current diis error: 0.18012    
          max. resid. norm for Fia-block=  1.677D-03 for orbital    192a         
          max. resid. fock norm         =  3.351D-03 for orbital   4135a         

 ITERATION  ENERGY          1e-ENERGY        2e-ENERGY     RMS[dD(SAO)]   TOL
   9  -2301.3177065812    -17676.797799     8063.7172518    0.274D-04 0.644D-14
                            Exc = -333.703782495     Coul =  8397.42103432    
                              N = 388.00086719    
                            current damping = 0.200
 
          Norm of current diis error: 0.99730E-01
          max. resid. norm for Fia-block=  8.211D-04 for orbital    192a         
          max. resid. fock norm         =  1.799D-03 for orbital   4135a         

 ITERATION  ENERGY          1e-ENERGY        2e-ENERGY     RMS[dD(SAO)]   TOL
  10  -2301.3178890610    -17676.728360     8063.6476307    0.207D-04 0.644D-14
                            Exc = -333.705844614     Coul =  8397.35347528    
                              N = 388.00086795    
                            current damping = 0.250
 
          Norm of current diis error: 0.32294E-01
          max. resid. norm for Fia-block=  3.056D-04 for orbital    191a         
          max. resid. fock norm         =  7.650D-04 for orbital   4118a         
          mo-orthogonalization: Cholesky decomposition

 ITERATION  ENERGY          1e-ENERGY        2e-ENERGY     RMS[dD(SAO)]   TOL
  11  -2301.3179065043    -17676.633443     8063.5526962    0.773D-05 0.644D-14
                            Exc = -333.702695774     Coul =  8397.25539199    
                              N = 388.00086845    
                            current damping = 0.100
 
          Norm of current diis error: 0.15672E-01
          max. resid. norm for Fia-block=  1.425D-04 for orbital    188a         
          max. resid. fock norm         =  3.365D-04 for orbital   4092a         

 ITERATION  ENERGY          1e-ENERGY        2e-ENERGY     RMS[dD(SAO)]   TOL
  12  -2301.3179095719    -17676.688549     8063.6077990    0.344D-05 0.644D-14
                            Exc = -333.703003526     Coul =  8397.31080249    
                              N = 388.00086805    
                            current damping = 0.150
 
          Norm of current diis error: 0.10071E-01
          max. resid. norm for Fia-block=  9.701D-05 for orbital    188a         
          max. resid. fock norm         =  2.684D-04 for orbital   4092a         

 ITERATION  ENERGY          1e-ENERGY        2e-ENERGY     RMS[dD(SAO)]   TOL
  13  -2301.3179113125    -17676.671324     8063.5905717    0.170D-05 0.644D-14
                            Exc = -333.703470324     Coul =  8397.29404201    
                              N = 388.00086815    
                            current damping = 0.200
 
          Norm of current diis error: 0.53303E-02
          max. resid. norm for Fia-block=  4.599D-05 for orbital    191a         
          max. resid. fock norm         =  1.120D-04 for orbital   4092a         

 ITERATION  ENERGY          1e-ENERGY        2e-ENERGY     RMS[dD(SAO)]   TOL
  14  -2301.3179118855    -17676.675967     8063.5952146    0.966D-06 0.644D-14
                            Exc = -333.703458529     Coul =  8397.29867310    
                              N = 388.00086816    
                            current damping = 0.250
 
          Norm of current diis error: 0.20029E-02
          max. resid. norm for Fia-block=  1.980D-05 for orbital    190a         
          max. resid. fock norm         =  4.066D-05 for orbital   4125a         

 ITERATION  ENERGY          1e-ENERGY        2e-ENERGY     RMS[dD(SAO)]   TOL
  15  -2301.3179119486    -17676.673635     8063.5928827    0.332D-06 0.644D-14
                            Exc = -333.703358037     Coul =  8397.29624075    
                              N = 388.00086817    
                            current damping = 0.300
 
          Norm of current diis error: 0.10637E-02
          max. resid. norm for Fia-block=  8.399D-06 for orbital    182a         
          max. resid. fock norm         =  1.679D-05 for orbital   4099a         
          mo-orthogonalization: Cholesky decomposition

 ITERATION  ENERGY          1e-ENERGY        2e-ENERGY     RMS[dD(SAO)]   TOL
  16  -2301.3179119707    -17676.674587     8063.5938345    0.137D-06 0.644D-14
                            Exc = -333.703348616     Coul =  8397.29718307    
                              N = 388.00086815    
                            current damping = 0.350
 
          Norm of current diis error: 0.31742E-03
          max. resid. norm for Fia-block=  3.705D-06 for orbital    188a         
          max. resid. fock norm         =  7.525D-06 for orbital   4127a         

 DENSITY CONVERGED !


 ITERATION  ENERGY          1e-ENERGY        2e-ENERGY     RMS[dD(SAO)]   TOL
  17  -2301.3179119713    -17676.673328     8063.5925758    0.622D-07 0.644D-14
                            Exc = -333.703374085     Coul =  8397.29594985    
                              N = 388.00086816    
                            current damping = 0.400
 
          Norm of current diis error: 0.24948E-03
          max. resid. norm for Fia-block=  1.970D-06 for orbital    190a         
          max. resid. fock norm         =  4.182D-06 for orbital   4095a         

 DENSITY CONVERGED !


 ITERATION  ENERGY          1e-ENERGY        2e-ENERGY     RMS[dD(SAO)]   TOL
  18  -2301.3179119730    -17676.674540     8063.5937871    0.404D-07 0.644D-14
                            Exc = -333.703380810     Coul =  8397.29716788    
                              N = 388.00086816    
                            current damping = 0.450
 
          Norm of current diis error: 0.56409E-04
          max. resid. norm for Fia-block=  5.685D-07 for orbital    192a         
          max. resid. fock norm         =  1.034D-06 for orbital   4085a         

 DENSITY CONVERGED !


 ITERATION  ENERGY          1e-ENERGY        2e-ENERGY     RMS[dD(SAO)]   TOL
  19  -2301.3179119728    -17676.674179     8063.5934262    0.190D-07 0.644D-14
                            Exc = -333.703372203     Coul =  8397.29679837    
                              N = 388.00086816    
                            current damping = 0.500
 
          Norm of current diis error: 0.21425E-04
          max. resid. norm for Fia-block=  2.349D-07 for orbital    185a         
          max. resid. fock norm         =  5.095D-07 for orbital   4137a         

 ENERGY & DENSITY CONVERGED !


 ITERATION  ENERGY          1e-ENERGY        2e-ENERGY     RMS[dD(SAO)]   TOL
  20  -2301.3177429303    -17676.674234     8063.5936506    0.282D-08 0.644D-14
                            Exc = -333.703202609     Coul =  8397.29685321    
                              N = 387.99996636    
                            current damping = 0.550
 
          Norm of current diis error: 0.14544E-04
          max. resid. norm for Fia-block=  1.386D-07 for orbital    182a         
          max. resid. fock norm         =  2.751D-07 for orbital   4099a         

 End of SCF iterations

   convergence criteria satisfied after   20 iterations


                  ------------------------------------------ 
                 |  total energy      =  -2301.31774293031  |
                  ------------------------------------------ 
                 :  kinetic energy    =   2290.26746833662  :
                 :  potential energy  =  -4591.58521126694  :
                 :  virial theorem    =      1.99519828384  :
                 :  wavefunction norm =      1.00000000000  :
                  .......................................... 


 <geterg> : there is no data group $energy 


 <skperg> : $end is missing 


 orbitals $scfmo  will be written to file mos

    irrep                190a        191a        192a        193a        194a   
 eigenvalues H         -0.20678    -0.20641    -0.20418    -0.20218    -0.20022
            eV          -5.6267     -5.6168     -5.5560     -5.5016     -5.4482
 occupation              2.0000      2.0000      2.0000      2.0000      2.0000 

    irrep                195a        196a        197a        198a        199a   
 eigenvalues H         -0.09818    -0.09796    -0.09213    -0.09113    -0.07250
            eV          -2.6717     -2.6657     -2.5069     -2.4798     -1.9730
 
 
 ! grave: sending quit signal to master process
 
 
 
 
 ==============================================================================
                           electrostatic moments
 ==============================================================================

 reference point for electrostatic moments:    0.00000   0.00000   0.00000

 
              nuc           elec       ->  total
 ------------------------------------------------------------------------------
                          charge      
 ------------------------------------------------------------------------------
         388.000000    -388.000000       0.000000
 
 ------------------------------------------------------------------------------
                       dipole moment  
 ------------------------------------------------------------------------------
   x       0.000000      -0.000000      -0.000000
   y      -0.000000       0.000000       0.000000
   z   -1454.469897    1454.998665       0.528768
 
   | dipole moment | =     0.5288 a.u. =     1.3440 debye 
 
 ------------------------------------------------------------------------------
                     quadrupole moment
 ------------------------------------------------------------------------------
  xx    5828.992451   -6057.763035    -228.770583
  yy   27811.132451  -28083.391016    -272.258565
  zz   17652.826000  -17885.217305    -232.391305
  xy      -0.000000      -0.000000      -0.000000
  xz      -0.000000       0.000000       0.000000
  yz      -0.000000      -0.000000      -0.000000
 
     1/3  trace=    -244.473484
     anisotropy=      41.795410
 
 ==============================================================================
 

    ridft profiling
  --------------------------------------------------------------------
             module   cpu total (s)       %  wall total (s)       %

               RIDFT          6233.4  100.00          6248.8  100.00
         Ridft_b_scf           275.0    4.41           274.8    4.40
        b_scf_prelim             0.0    0.00             0.0    0.00
        b_scf_molinp             0.0    0.00             0.0    0.00
         b_scf_init0             0.0    0.00             0.0    0.00
        b_scf_auxbas             0.0    0.00             0.0    0.00
      b_scf_symmetry             0.0    0.00             0.0    0.00
         b_scf_cosmo             0.0    0.00             0.0    0.00
        b_scf_params            23.4    0.38            23.4    0.37
          b_scf_ri-j            82.6    1.32            82.5    1.32
    b_scf_ri-j_auxpq            82.5    1.32            82.4    1.32
     ri-j_auxpq_chol             5.0    0.08             5.0    0.08
         b_scf_1elec             9.6    0.15             9.6    0.15
       b_scf_moinput           159.4    2.56           159.3    2.55
     moinput_orthmos           158.5    2.54           158.3    2.53
    b_scf_dft-dstmax             0.0    0.00             0.0    0.00
           Ridft_scf          5955.7   95.55          5971.3   95.56
          Scf_b_loop             0.0    0.00             0.0    0.00
                noga             0.0    0.00             0.0    0.00
            Scf_loop          5944.3   95.36          5958.9   95.36
     scf_loop_mkdmat            36.4    0.58            36.4    0.58
       scf_loop_ri-j          1407.4   22.58          1406.3   22.51
      parlp1.bc.dens             3.0    0.05             3.0    0.05
        parlp1.gs.gp             0.0    0.00             0.0    0.00
        parlp2.bc.gq             0.0    0.00             0.0    0.00
        scf_loop_dft          2539.4   40.74          2537.6   40.61
      pardft.bc.dens             0.0    0.00             0.0    0.00
        dft_grid_con             4.8    0.08             4.8    0.08
           dft_xcrhf          2501.4   40.13          2499.6   40.00
          dft_getval            99.5    1.60            99.6    1.59
          funct2 dst             1.0    0.02             0.9    0.01
      funct2 f2loop1            23.0    0.37            23.1    0.37
      funct2 f2loop2            43.9    0.70            43.8    0.70
          funct2 s+c            30.6    0.49            30.7    0.49
        funct2 cmf_2            28.3    0.45            28.4    0.45
          dft_mkdens           989.0   15.87           988.2   15.81
         dft_gga-fun             0.8    0.01             0.8    0.01
          dft_mkfock          1411.2   22.64          1410.2   22.57
     pardft.red.fock           181.1    2.91           181.1    2.90
     scf_loop_energy             0.2    0.00             0.3    0.01
     scf_loop_mkfock             0.4    0.01             0.4    0.01
       scf_loop_diis          1065.7   17.10          1066.2   17.06
       scf_loop_diag           544.2    8.73           543.8    8.70
         diag_tritrn           192.1    3.08           192.0    3.07
          diag_rdiag           351.1    5.63           350.8    5.61
     scf_loop_modump           199.3    3.20           216.6    3.47
      scf_loop_ortho           143.4    2.30           143.3    2.29
          Scf_a_loop            11.5    0.18            12.3    0.20
         Ridft_a_scf             2.6    0.04             2.7    0.04
         a_scf_fanal             2.6    0.04             2.6    0.04
 


    ------------------------------------------------------------------------
         total  cpu-time :  1 hours 44 minutes and  7 seconds
         total wall-time :  1 hours 44 minutes and 22 seconds
    ------------------------------------------------------------------------


   ****  ridft : all done  ****


    2016-01-30 13:17:39.127 

