Using Slurm to start processes with PMI2
STARTING ridft ON 8 PROCESSORS!
RUNNING PROGRAM /modfac/apps/TURBOMOLE/7.0_intel_GA/bin/em64t-unknown-linux-gnu_mpi/ridft_mpi.
PLEASE WAIT UNTIL ridft HAS FINISHED.
Look for the output in slave1.output.
  this is node-proc. number 1 running on node c-15-24.local
  the total number of node-proc. spawned is            8
  parallel platform: MPP, or cluster with fast interconnect

 ridft (c-15-24.local) : TURBOMOLE V7.0.2( ) 15 Jan 2016 at 17:47:42
 Copyright (C) 2016 TURBOMOLE GmbH, Karlsruhe


    2016-02-16 17:55:30.401 



                                  r i d f t

                        DFT program with RI approximation 
                                for coulomb part 




                                                 
                                 References:     
                                                 
          TURBOMOLE:                             
              R. Ahlrichs, M. Baer, M. Haeser, H. Horn, and
              C. Koelmel
              Electronic structure calculations on workstation
              computers: the program system TURBOMOLE
              Chem. Phys. Lett. 162: 165 (1989)
          Density Functional:                              
              O. Treutler and R. Ahlrichs                      
              Efficient Molecular Numerical Integration Schemes
              J. Chem. Phys. 102: 346 (1995)                   
          Parallel Version:                                
              Performance of parallel TURBOMOLE for Density    
              Functional Calculations                          
              M. v. Arnim and R. Ahlrichs                      
              J. Comp. Chem. 19: 1746 (1998)                   
          RI-J Method:                                     
              Auxiliary Basis Sets to approximate Coulomb      
              Potentials                                       
              Chem. Phys. Lett. 240: 283 (1995)                
              K. Eichkorn, O. Treutler, H. Oehm, M. Haeser     
              and R. Ahlrichs                                  
              Chem. Phys. Lett. 242: 652 (1995)                
                                                           
              Auxiliary Basis Sets for Main Row Atoms and their
              Use to approximate Coulomb Potentials            
              K. Eichkorn, F. Weigend, O. Treutler and         
              R. Ahlrichs                                      
              Theo. Chem. Acc. 97: 119 (1997)                   
                                                           
              Accurate Coulomb-fitting basis sets for H to Rn 
              F. Weigend                                        
              Phys. Chem. Chem. Phys. 8: 1057 (2006)            
                                                           
          Multipole accelerated RI-J (MARI-J):             
              Fast evaluation of the Coulomb potential for     
              electron densities using multipole accelerated   
              resolution of identity approximation             
              M. Sierka, A. Hogekamp and R. Ahlrichs           
              J. Chem. Phys. 118: 9136 (2003)                  
          RI-JK Method:                                     
              A fully direct RI-HF algorithm: Implementation,
              optimised auxiliary basis sets, demonstration of
              accuracy and efficiency                         
              F. Weigend                                      
              Phys. Chem. Chem. Phys. 4: 4285 (2002)           
          Two-component HF and DFT with spin-orbit coupling:  
              Self-consistent treatment of spin-orbit         
              interactions with efficient Hartree-Fock and    
              density functional methods                      
              M. K. Armbruster, F. Weigend, C. van Wüllen and 
              W. Klopper                                      
              Phys. Chem. Chem. Phys. 10: 1748 (2008)         
          Relativistic all-electron 2c calculations           
              An efficient implementation of two-component    
              relativistic exact-decoupling methods for large 
              molecules                                       
              D. Peng, N. Middendorf, F. Weigend, M. Reiher   
              J. Chem. Phys. 138, 184105 (2013)               
                                         


 


              +--------------------------------------------------+
              |      general information about current run       |
              +--------------------------------------------------+

 

 SCF run will be profiled !


 DENSITY CONVERGENCE CHECK SWITCHED ON !
 SCF CONVERGENCE IF RMS(delta[D]) <     0.1000000000E-06

 TPSS meta-GGA functional
 exchange:    LDA + TPSS
 correlation: LDA (PW) + TPSS
 A DFT calculation using the RI-J approximation will be carried out.
 Allocatable memory for RI due to $ricore (MB):        5000


              +--------------------------------------------------+
              | Atomic coordinate, charge and isotop information |
              +--------------------------------------------------+

                    atomic coordinates            atom    charge  isotop
         -0.27393470    6.18819168   -1.19322977    c      6.000     0
         -2.46344699    5.77825339   -2.60449615    c      6.000     0
         -4.69406082    5.39705784   -1.25235930    c      6.000     0
         -4.71896741    5.33938339    1.40380196    c      6.000     0
         -2.51326017    5.65638495    2.81229043    c      6.000     0
         -0.29785863    6.12649212    1.46128742    c      6.000     0
         -7.42369463    4.94664161   -2.11437678    c      6.000     0
         -8.01020893    2.21933216   -1.35181559    c      6.000     0
         -8.03725091    2.16388760    1.30729364    c      6.000     0
         -7.46489066    4.85601035    2.19433109    c      6.000     0
         -8.21278757    0.01810358   -2.78447366    c      6.000     0
         -8.41651894   -2.24308602   -1.44717117    c      6.000     0
         -8.44656559   -2.29788808    1.20944362    c      6.000     0
         -8.27108562   -0.09424064    2.64331112    c      6.000     0
         -8.82968866    6.36030794    0.05739098    c      6.000     0
          2.39027679    6.99321501   -1.97848657    c      6.000     0
          2.35234999    6.89052730    2.33048586    c      6.000     0
          4.24147141    4.87579578    1.47132187    c      6.000     0
          4.26509298    4.93957404   -1.18370555    c      6.000     0
          5.91295307    3.35513316    2.83024283    c      6.000     0
          7.66850865    1.97164576    1.43095732    c      6.000     0
          7.69269714    2.03631219   -1.22333311    c      6.000     0
          5.96134896    3.48626126   -2.58482410    c      6.000     0
          2.91214356    8.90127149    0.22748523    c      6.000     0
          9.87956381    0.34202153   -2.07607203    c      6.000     0
          9.16122222   -2.35520347   -1.32190122    c      6.000     0
          9.13548415   -2.42066359    1.33913553    c      6.000     0
          9.83927485    0.23553547    2.23913649    c      6.000     0
          8.55002809   -4.47912337   -2.72959602    c      6.000     0
          7.90073709   -6.70059092   -1.42800935    c      6.000     0
          7.87418644   -6.76523845    1.20657124    c      6.000     0
          8.49702128   -4.61078059    2.62830669    c      6.000     0
         11.77284263    0.92596581    0.11506542    c      6.000     0
         -8.31764847   -5.08264520    1.98096211    c      6.000     0
         -5.66577689   -5.91321763    1.16915466    c      6.000     0
         -5.63425626   -5.85826440   -1.48989788    c      6.000     0
         -8.26696602   -4.99384697   -2.32929533    c      6.000     0
         -3.49926257   -6.47956855    2.52781106    c      6.000     0
         -1.27490374   -7.03089615    1.18478270    c      6.000     0
         -1.24351538   -6.97650983   -1.44679322    c      6.000     0
         -3.43540873   -6.36901957   -2.81856432    c      6.000     0
         -9.87669143   -6.27071602   -0.21820668    c      6.000     0
         -2.45294011    5.84171039   -4.65828830    h      1.000     0
         -2.54030215    5.62747214    4.86674399    h      1.000     0
         -7.86022136    5.46728006   -4.05896166    h      1.000     0
         -7.93792690    5.29540947    4.15038661    h      1.000     0
         -8.11773434    0.05695635   -4.83605484    h      1.000     0
         -8.21892918   -0.14040665    4.69617731    h      1.000     0
         -8.40519948    8.38335425    0.10380266    h      1.000     0
        -10.87140547    6.03249714    0.03110489    h      1.000     0
          2.58575006    7.68646105   -3.90969219    h      1.000     0
          2.51428062    7.49055314    4.29570655    h      1.000     0
          5.92036080    3.32542667    4.88460190    h      1.000     0
          6.00539847    3.55672914   -4.63769029    h      1.000     0
          1.57809140   10.48166835    0.25358235    h      1.000     0
          4.86727311    9.57563916    0.26070662    h      1.000     0
         10.52462183    0.60197226   -4.01470427    h      1.000     0
         10.44833358    0.39867552    4.19987854    h      1.000     0
          8.55318394   -4.43267390   -4.78236772    h      1.000     0
          7.42214505   -8.39155566   -2.48982756    h      1.000     0
          7.37512867   -8.50599747    2.17420550    h      1.000     0
          8.46002044   -4.66543147    4.68064376    h      1.000     0
         12.34503281    2.91199238    0.16958402    h      1.000     0
         13.42257354   -0.32125344    0.09956967    h      1.000     0
         -8.86591471   -5.52843160    3.91606057    h      1.000     0
         -8.76902846   -5.35979244   -4.29349557    h      1.000     0
         -3.50574433   -6.49980752    4.58215124    h      1.000     0
          0.44499271   -7.48906025    2.20842845    h      1.000     0
          0.50075853   -7.39238186   -2.44683629    h      1.000     0
         -3.39254974   -6.30418307   -4.87158169    h      1.000     0
        -11.84561598   -5.64075692   -0.22848679    h      1.000     0
         -9.76051107   -8.33473160   -0.25925153    h      1.000     0
          0.45224926   -0.84580362   -2.67537977    c      0.000     0
          0.39459371   -0.96459181    2.64450165    c      0.000     0
          2.65068105   -1.59445642    1.27424233    c      0.000     0
          2.67838444   -1.53842604   -1.28667673    c      0.000     0
         -1.86313769   -0.39368665    1.25324747    c      0.000     0
         -1.83501856   -0.33633346   -1.30876763    c      0.000     0
          0.39835427   -0.91583687    5.28048063    c      0.000     0
          0.51181343   -0.67722115   -5.30584076    c      0.000     0
          2.77402348   -1.11680925   -6.67834885    c      0.000     0
         -1.67832247   -0.01780122   -6.70601444    c      0.000     0
          2.63210504   -1.41763475    6.67793311    c      0.000     0
         -1.82245188   -0.32546753    6.66298537    c      0.000     0
         -3.49875235    0.52904773   -7.81566162    n      0.000     0
          4.65792925   -1.46516136   -7.76197450    n      0.000     0
          4.49465692   -1.81661263    7.78079617    n      0.000     0
         -3.66775055    0.16586126    7.75745806    n      0.000     0
          4.38153791   -2.03474372   -2.30489896    h      0.000     0
          4.33176252   -2.13518266    2.30622177    h      0.000     0
         -3.59287960    0.00411960    2.26776585    h      0.000     0
         -3.54227274    0.10761990   -2.34208877    h      0.000     0
 
       center of nuclear mass  :   -0.02444991   -0.00205921   -0.00030076
       center of nuclear charge:   -0.19597432    0.29112826    0.00443214

              +--------------------------------------------------+
              |               basis set information              |
              +--------------------------------------------------+

              we will work with the 1s 3p 5d 7f 9g ... basis set
              ...i.e. with spherical basis functions...

   type   atoms  prim   cont   basis
   ---------------------------------------------------------------------------
    c       54     50     30   cc-pVTZ   [4s3p2d1f|18s5p2d1f]
    h       34     16     14   cc-pVTZ   [3s2p1d|5s2p1d]
    n        4     50     30   cc-pVTZ   [4s3p2d1f|18s5p2d1f]
   ---------------------------------------------------------------------------
   total:   92   3444   2216
   ---------------------------------------------------------------------------

   total number of primitive shells          :   60
   total number of contracted shells         :  784
   total number of cartesian basis functions : 2540
   total number of SCF-basis functions       : 2216


 integral neglect threshold       :  0.13E-13
 integral storage threshold THIZE :  0.10E-04
 integral storage threshold THIME :         5

 RI-J AUXILIARY BASIS SET information:

              we will work with the 1s 3p 5d 7f 9g ... basis set
              ...i.e. with spherical basis functions...

   type   atoms  prim   cont   basis
   ---------------------------------------------------------------------------
    c       54     70     49   cc-pVTZ   [6s4p3d1f1g|12s5p4d2f1g]
    h       34     16     11   cc-pVTZ   [3s1p1d|5s2p1d]
    n        4     70     49   cc-pVTZ   [6s4p3d1f1g|12s5p4d2f1g]
   ---------------------------------------------------------------------------
   total:   92   4604   3216
   ---------------------------------------------------------------------------

   total number of primitive shells          :   56
   total number of contracted shells         : 1040
   total number of cartesian basis functions : 3946
   total number of SCF-basis functions       : 3216


 symmetry group of the molecule :   c1 

 the group has the following generators :
   c1(z)

    1 symmetry operations found

 there are 1 real representations :   a   

 maximum number of shells which are related by symmetry :  1


    mo occupation :
   irrep   mo's   occupied
    a     2216      141
 
 number of basis functions   :         2216
 number of occupied orbitals :          141
 
  
           ------------------
           density functional
           ------------------
 Dummy atoms with grid-point found.
 DFT quadrature threshold dgrenze tightened by factor 1/10.

 TPSS meta-GGA functional
 exchange:    LDA + TPSS
 correlation: LDA (PW) + TPSS
 Dummy atoms with grid-point found.
 DFT quadrature threshold dgrenze tightened by factor 1/10.

 Dummy atoms with grid-point found.
 DFT quadrature threshold dgrenze tightened by factor 1/10.

 grinp -> nfun, dfgga, dfhybrid 
           5 F F
 iterations will be done with small grid
  
 spherical integration : Lebedev's spherical grid
 spherical gridsize    :           5
    i.e. gridpoints    :         590
 value for diffuse not defined
 radial integration    : Chebyshev 2nd kind (scaling 3)
 radial gridsize       :           8
 integration cells     :          92
 partition function    : becke
 partition sharpness   :           3
  
 found dummy atom(s) with basis: included in dft

 <rddim> : input of entry tasksize
           from data group '$pardft' failed !

               Default values taken

 <rddim> : input of entry memdiv
           from data group '$pardft' failed !

               Default values taken
  RIDFT: memory allocation for DFT gridpoints
  MEMORY is divided by 1 as DEFAULT
 Each node can hold at most  the            1 -th part
 of the gridpoints    

 biggest AO integral is expected to be     4.229423036
  
           ------------------------
               RI-J - INFORMATION
           ------------------------
 
 
 **************************************************
 *      MEMORY ALLOCATION FOR PARALLEL RI-DFT     *
 **************************************************
 
 
MEMORY FOR (MU NU/ ALPHA), SEQUENTIAL RUN               4919 MByte
 
            DIFFERENCE IN MEMORY NEED:       DIAG./SLAVE  
 
      TOTAL DIFFERENCE :                    278 MByte
 
      difference in xcore:                   82 MByte
      difference in fatmat:                  72 MByte
      getcor calls skipped by slaves:       125 MByte
 
 
           Integral memory available for diagonal.      4919 MByte
 
           Integral memory available for slave             0 MByte
 
         MEMORY FOR (MU NU/ ALPHA) ON DIAGONALIZER      4919 MByte
 
         MEMORY FOR (MU NU/ ALPHA) ON ONE SLAVE            0 MByte
 
         TOTAL MEMORY FOR (MU NU/ ALPHA),ALL NODES      4919 MByte
 
 Contributions to RI integral batches: 
  neglected integral batches:      148680
  direct contribution:             113934
  memory contribution:       45106
 Memory core needed for (P|Q) and Cholesky     79 MByte
 Memory core minimum needed except of (P|Q)     4 MByte
 Total minimum memory core needed (sum)        83 MByte
     number of direct tasks:         160
  
 ****************************************
 Memory allocated for RI-J  5001 MByte
 ****************************************
                                            

          ------------------------
          nuclear repulsion energy  :   4480.39125619    
          ------------------------

 
          -----------------
          -S integrals
          -----------------

 1e-integrals will be neglected if expon. factor < 0.131573E-14
 
          -----------------
          -T+V integrals
          -----------------

 1e-integrals will be neglected if expon. factor < 0.131573E-14
 Difference densities >>NOT<< switched on in parallel ridft!

 automatic virtual orbital shift switched on 
      shift if e(lumo)-e(homo) < 0.10000000    


 DIIS switched on: error vector is FDS-SDF
 Max. Iterations for DIIS is     :   4
 DIIS matrix (see manual) 
    Scaling factor of diagonals  :  1.200
    threshold for scaling factor :  0.000

 scf convergence criterion : increment of total energy < .1000000D-08
                  and increment of one-electron energy < .1000000D-05

  MOs are in ASCII format !


 reading orbital data $scfmo  from file mos . 

 orbital characterization : expanded
 
 mo provided and orthogonalized by Cholesky decomposition

 DSCF restart information will be dumped onto file mos


 Starting SCF iterations


 ITERATION  ENERGY          1e-ENERGY        2e-ENERGY     RMS[dD(SAO)]   TOL
   1  -1614.5010538474    -11032.270071     4937.3777611    0.000D+00 0.131D-13
                            Exc = -234.013000074     Coul =  5171.39076122    
                              N = 281.99859909    
                            current damping = 0.700
 
          max. resid. norm for Fia-block=  2.622D-01 for orbital     46a         
          max. resid. fock norm         =  1.098D+01 for orbital   2154a         

 ITERATION  ENERGY          1e-ENERGY        2e-ENERGY     RMS[dD(SAO)]   TOL
   2  -1618.2149133571    -11083.771161     4985.1649915    0.213D-02 0.131D-13
                            Exc = -237.730633053     Coul =  5222.89562453    
                              N = 281.99889043    
                            current damping = 0.650
 
          Norm of current diis error:  5.3552    
          max. resid. norm for Fia-block=  1.299D-01 for orbital     46a         
          max. resid. fock norm         =  1.456D-01 for orbital    162a         

 ITERATION  ENERGY          1e-ENERGY        2e-ENERGY     RMS[dD(SAO)]   TOL
   3  -1619.0108719499    -11092.292813     4992.8906853    0.929D-03 0.131D-13
                            Exc = -238.824685396     Coul =  5231.71537066    
                              N = 281.99905554    
                            current damping = 0.550
 
          Norm of current diis error:  2.7343    
          max. resid. norm for Fia-block=  6.473D-02 for orbital     46a         
          max. resid. fock norm         =  7.133D-02 for orbital     46a         

 ITERATION  ENERGY          1e-ENERGY        2e-ENERGY     RMS[dD(SAO)]   TOL
   4  -1619.2657621807    -11103.602031     5003.9450126    0.502D-03 0.131D-13
                            Exc = -239.581176674     Coul =  5243.52618929    
                              N = 281.99915102    
                            current damping = 0.450
 
          Norm of current diis error:  1.0611    
          max. resid. norm for Fia-block=  2.498D-02 for orbital     46a         
          max. resid. fock norm         =  3.305D-02 for orbital     48a         

 ITERATION  ENERGY          1e-ENERGY        2e-ENERGY     RMS[dD(SAO)]   TOL
   5  -1619.3053352165    -11104.001010     5004.3044185    0.293D-03 0.131D-13
                            Exc = -239.856414630     Coul =  5244.16083318    
                              N = 281.99919936    
                            current damping = 0.300
 
          Norm of current diis error: 0.62058    
          max. resid. norm for Fia-block=  1.161D-02 for orbital    137a         
          max. resid. fock norm         =  1.506D-02 for orbital     58a         
          mo-orthogonalization: Cholesky decomposition

 ITERATION  ENERGY          1e-ENERGY        2e-ENERGY     RMS[dD(SAO)]   TOL
   6  -1619.3168123319    -11107.461756     5007.7536875    0.152D-03 0.131D-13
                            Exc = -240.001577306     Coul =  5247.75526484    
                              N = 281.99921375    
                            current damping = 0.200
 
          Norm of current diis error: 0.31932    
          max. resid. norm for Fia-block=  5.682D-03 for orbital    137a         
          max. resid. fock norm         =  1.033D-02 for orbital     58a         

 ITERATION  ENERGY          1e-ENERGY        2e-ENERGY     RMS[dD(SAO)]   TOL
   7  -1619.3191319328    -11106.933024     5007.2226356    0.759D-04 0.131D-13
                            Exc = -240.009105967     Coul =  5247.23174158    
                              N = 281.99921469    
                            current damping = 0.250
 
          Norm of current diis error: 0.20282    
          max. resid. norm for Fia-block=  2.782D-03 for orbital    140a         
          max. resid. fock norm         =  4.474D-03 for orbital   2169a         

 ITERATION  ENERGY          1e-ENERGY        2e-ENERGY     RMS[dD(SAO)]   TOL
   8  -1619.3205094248    -11106.770206     5007.0584406    0.343D-04 0.131D-13
                            Exc = -240.008560799     Coul =  5247.06700135    
                              N = 281.99921568    
                            current damping = 0.100
 
          Norm of current diis error: 0.63538E-01
          max. resid. norm for Fia-block=  1.210D-03 for orbital    140a         
          max. resid. fock norm         =  1.853D-03 for orbital   2169a         

 ITERATION  ENERGY          1e-ENERGY        2e-ENERGY     RMS[dD(SAO)]   TOL
   9  -1619.3205650255    -11106.964736     5007.2529152    0.146D-04 0.131D-13
                            Exc = -240.013554693     Coul =  5247.26646986    
                              N = 281.99921674    
                            current damping = 0.150
 
          Norm of current diis error: 0.47816E-01
          max. resid. norm for Fia-block=  7.375D-04 for orbital    140a         
          max. resid. fock norm         =  1.110D-03 for orbital   2199a         

 ITERATION  ENERGY          1e-ENERGY        2e-ENERGY     RMS[dD(SAO)]   TOL
  10  -1619.3206421428    -11106.972288     5007.2603893    0.799D-05 0.131D-13
                            Exc = -240.014356717     Coul =  5247.27474605    
                              N = 281.99921631    
                            current damping = 0.050
 
          Norm of current diis error: 0.16469E-01
          max. resid. norm for Fia-block=  2.125D-04 for orbital    140a         
          max. resid. fock norm         =  3.430D-04 for orbital   2196a         
          mo-orthogonalization: Cholesky decomposition

 ITERATION  ENERGY          1e-ENERGY        2e-ENERGY     RMS[dD(SAO)]   TOL
  11  -1619.3206493785    -11106.895895     5007.1839894    0.315D-05 0.131D-13
                            Exc = -240.011518070     Coul =  5247.19550746    
                              N = 281.99921606    
                            current damping = 0.100
 
          Norm of current diis error: 0.80002E-02
          max. resid. norm for Fia-block=  1.308D-04 for orbital    137a         
          max. resid. fock norm         =  2.889D-04 for orbital     18a         

 ITERATION  ENERGY          1e-ENERGY        2e-ENERGY     RMS[dD(SAO)]   TOL
  12  -1619.3206505939    -11106.929738     5007.2178313    0.169D-05 0.131D-13
                            Exc = -240.012650552     Coul =  5247.23048189    
                              N = 281.99921624    
                            current damping = 0.150
 
          Norm of current diis error: 0.49958E-02
          max. resid. norm for Fia-block=  9.145D-05 for orbital    137a         
          max. resid. fock norm         =  1.398D-04 for orbital    137a         

 ITERATION  ENERGY          1e-ENERGY        2e-ENERGY     RMS[dD(SAO)]   TOL
  13  -1619.3206514049    -11106.925076     5007.2131680    0.887D-06 0.131D-13
                            Exc = -240.012646366     Coul =  5247.22581435    
                              N = 281.99921621    
                            current damping = 0.200
 
          Norm of current diis error: 0.18559E-02
          max. resid. norm for Fia-block=  2.888D-05 for orbital    140a         
          max. resid. fock norm         =  5.914D-05 for orbital     26a         

 ITERATION  ENERGY          1e-ENERGY        2e-ENERGY     RMS[dD(SAO)]   TOL
  14  -1619.3206514919    -11106.923480     5007.2115727    0.368D-06 0.131D-13
                            Exc = -240.012508728     Coul =  5247.22408141    
                              N = 281.99921619    
                            current damping = 0.050
 
          Norm of current diis error: 0.10095E-02
          max. resid. norm for Fia-block=  1.647D-05 for orbital    141a         
          max. resid. fock norm         =  3.579D-05 for orbital     26a         

 ITERATION  ENERGY          1e-ENERGY        2e-ENERGY     RMS[dD(SAO)]   TOL
  15  -1619.3206515083    -11106.924172     5007.2122641    0.227D-06 0.131D-13
                            Exc = -240.012526504     Coul =  5247.22479061    
                              N = 281.99921619    
                            current damping = 0.100
 
          Norm of current diis error: 0.73413E-03
          max. resid. norm for Fia-block=  1.029D-05 for orbital    141a         
          max. resid. fock norm         =  2.226D-05 for orbital     33a         
          mo-orthogonalization: Cholesky decomposition

 ITERATION  ENERGY          1e-ENERGY        2e-ENERGY     RMS[dD(SAO)]   TOL
  16  -1619.3206515256    -11106.923518     5007.2116098    0.129D-06 0.131D-13
                            Exc = -240.012537167     Coul =  5247.22414698    
                              N = 281.99921620    
                            current damping = 0.150
 
          Norm of current diis error: 0.28348E-03
          max. resid. norm for Fia-block=  4.568D-06 for orbital    141a         
          max. resid. fock norm         =  1.307D-05 for orbital     33a         

 DENSITY CONVERGED !


 ITERATION  ENERGY          1e-ENERGY        2e-ENERGY     RMS[dD(SAO)]   TOL
  17  -1619.3206515276    -11106.924237     5007.2123295    0.596D-07 0.131D-13
                            Exc = -240.012549524     Coul =  5247.22487906    
                              N = 281.99921620    
                            current damping = 0.200
 
          Norm of current diis error: 0.14118E-03
          max. resid. norm for Fia-block=  2.437D-06 for orbital    140a         
          max. resid. fock norm         =  5.903D-06 for orbital     33a         

 DENSITY CONVERGED !


 ITERATION  ENERGY          1e-ENERGY        2e-ENERGY     RMS[dD(SAO)]   TOL
  18  -1619.3206515283    -11106.923982     5007.2120743    0.250D-07 0.131D-13
                            Exc = -240.012537669     Coul =  5247.22461195    
                              N = 281.99921619    
                            current damping = 0.250
 
          Norm of current diis error: 0.67042E-04
          max. resid. norm for Fia-block=  1.218D-06 for orbital    140a         
          max. resid. fock norm         =  2.950D-06 for orbital     18a         

 DENSITY CONVERGED !


 ITERATION  ENERGY          1e-ENERGY        2e-ENERGY     RMS[dD(SAO)]   TOL
  19  -1619.3206515284    -11106.923876     5007.2119682    0.127D-07 0.131D-13
                            Exc = -240.012537338     Coul =  5247.22450550    
                              N = 281.99921620    
                            current damping = 0.100
 
          Norm of current diis error: 0.29545E-04
          max. resid. norm for Fia-block=  5.615D-07 for orbital    137a         
          max. resid. fock norm         =  1.035D-06 for orbital     18a         

 DENSITY CONVERGED !


 ITERATION  ENERGY          1e-ENERGY        2e-ENERGY     RMS[dD(SAO)]   TOL
  20  -1619.3206515284    -11106.923956     5007.2120483    0.712D-08 0.131D-13
                            Exc = -240.012540833     Coul =  5247.22458916    
                              N = 281.99921620    
                            current damping = 0.150
 
          Norm of current diis error: 0.23675E-04
          max. resid. norm for Fia-block=  2.576D-07 for orbital    137a         
          max. resid. fock norm         =  5.234D-07 for orbital     26a         
          mo-orthogonalization: Cholesky decomposition

 ENERGY & DENSITY CONVERGED !


 ITERATION  ENERGY          1e-ENERGY        2e-ENERGY     RMS[dD(SAO)]   TOL
  21  -1619.3196972614    -11106.923983     5007.2130299    0.317D-08 0.131D-13
                            Exc = -240.011586731     Coul =  5247.22461667    
                              N = 282.00002129    
                            current damping = 0.050
 
          Norm of current diis error: 0.78754E-05
          max. resid. norm for Fia-block=  1.448D-07 for orbital    141a         
          max. resid. fock norm         =  3.713D-07 for orbital     33a         

 End of SCF iterations

   convergence criteria satisfied after   21 iterations


                  ------------------------------------------ 
                 |  total energy      =  -1619.31969726139  |
                  ------------------------------------------ 
                 :  kinetic energy    =   1609.60680855607  :
                 :  potential energy  =  -3228.92650581745  :
                 :  virial theorem    =      1.99400187083  :
                 :  wavefunction norm =      1.00000000000  :
                  .......................................... 


 orbitals $scfmo  will be written to file mos

    irrep                137a        138a        139a        140a        141a   
 eigenvalues H         -0.21199    -0.21036    -0.19994    -0.18915    -0.17613
            eV          -5.7685     -5.7244     -5.4407     -5.1471     -4.7929
 occupation              2.0000      2.0000      2.0000      2.0000      2.0000 

    irrep                142a        143a        144a        145a        146a   
 eigenvalues H         -0.04473    -0.04386    -0.03939    -0.03563    -0.02608
            eV          -1.2171     -1.1936     -1.0719     -0.9697     -0.7098
 
 
 ! grave: sending quit signal to master process
 
 
 
 
 ==============================================================================
                           electrostatic moments
 ==============================================================================

 reference point for electrostatic moments:    0.00000   0.00000   0.00000

 
              nuc           elec       ->  total
 ------------------------------------------------------------------------------
                          charge      
 ------------------------------------------------------------------------------
         282.000000    -282.000000      -0.000000
 
 ------------------------------------------------------------------------------
                       dipole moment  
 ------------------------------------------------------------------------------
   x     -55.264757      55.361276       0.096518
   y      82.098169     -81.586784       0.511385
   z       1.249865      -1.237630       0.012235
 
   | dipole moment | =     0.5206 a.u. =     1.3231 debye 
 
 ------------------------------------------------------------------------------
                     quadrupole moment
 ------------------------------------------------------------------------------
  xx   13750.592258  -13924.570984    -173.978726
  yy    7399.306189   -7575.203172    -175.896983
  zz    1256.715551   -1421.465229    -164.749678
  xy     180.201973    -178.316884       1.885089
  xz      95.392561     -95.438893      -0.046332
  yz     132.889837    -133.119541      -0.229704
 
     1/3  trace=    -171.541796
     anisotropy=      10.834396
 
 ==============================================================================
 

    ridft profiling
  --------------------------------------------------------------------
             module   cpu total (s)       %  wall total (s)       %

               RIDFT          6210.3  100.00          6220.6  100.00
         Ridft_b_scf            84.1    1.35            84.1    1.35
        b_scf_prelim             0.0    0.00             0.0    0.00
        b_scf_molinp             0.0    0.00             0.0    0.00
         b_scf_init0             0.0    0.00             0.0    0.00
        b_scf_auxbas             0.0    0.00             0.0    0.00
      b_scf_symmetry             0.0    0.00             0.0    0.00
         b_scf_cosmo             0.0    0.00             0.0    0.00
        b_scf_params             3.4    0.06             3.4    0.06
          b_scf_ri-j            59.9    0.96            59.9    0.96
    b_scf_ri-j_auxpq            59.8    0.96            59.8    0.96
     ri-j_auxpq_chol             3.9    0.06             3.9    0.06
         b_scf_1elec             2.5    0.04             2.5    0.04
       b_scf_moinput            18.2    0.29            18.2    0.29
     moinput_orthmos            17.7    0.29            17.7    0.29
    b_scf_dft-dstmax             0.0    0.00             0.0    0.00
           Ridft_scf          6125.2   98.63          6135.4   98.63
          Scf_b_loop             0.0    0.00             0.0    0.00
                noga             0.0    0.00             0.0    0.00
            Scf_loop          6121.2   98.56          6130.9   98.56
     scf_loop_mkdmat            10.6    0.17            10.6    0.17
       scf_loop_ri-j           798.7   12.86           798.9   12.84
      parlp1.bc.dens             1.7    0.03             1.7    0.03
        parlp1.gs.gp            11.5    0.19            11.5    0.19
        parlp2.bc.gq             0.0    0.00             0.0    0.00
        scf_loop_dft          4993.5   80.41          4994.8   80.30
      pardft.bc.dens             0.0    0.00             0.0    0.00
        dft_grid_con            16.5    0.27            16.5    0.26
          dft_xcmrhf          4960.0   79.87          4961.3   79.76
          dft_getval            93.6    1.51            93.6    1.51
          funct2 dst             1.6    0.03             1.7    0.03
      funct2 f2loop1            12.4    0.20            12.4    0.20
      funct2 f2loop2            46.3    0.74            46.3    0.74
          funct2 s+c            31.7    0.51            31.6    0.51
        funct2 cmf_2            28.5    0.46            28.5    0.46
          dft_mkdens          2765.9   44.54          2766.7   44.48
        dft_mgga-fun             3.1    0.05             3.0    0.05
          dft_mkfock          2095.6   33.74          2096.3   33.70
     pardft.red.fock           347.0    5.59           347.1    5.58
     scf_loop_energy             0.1    0.00             0.1    0.00
     scf_loop_mkfock             0.2    0.00             0.2    0.00
       scf_loop_diis           112.6    1.81           112.6    1.81
       scf_loop_diag           105.6    1.70           105.6    1.70
         diag_tritrn            37.7    0.61            37.7    0.61
          diag_rdiag            67.3    1.08            67.4    1.08
     scf_loop_modump            70.9    1.14            79.1    1.27
      scf_loop_ortho            26.6    0.43            26.6    0.43
          Scf_a_loop             4.0    0.06             4.5    0.07
         Ridft_a_scf             1.1    0.02             1.1    0.02
         a_scf_fanal             1.0    0.02             1.0    0.02
 


    ------------------------------------------------------------------------
         total  cpu-time :  1 hours 43 minutes and 36 seconds
         total wall-time :  1 hours 43 minutes and 46 seconds
    ------------------------------------------------------------------------


   ****  ridft : all done  ****


    2016-02-16 19:39:16.341 

