Using Slurm to start processes with PMI2
STARTING ridft ON 8 PROCESSORS!
RUNNING PROGRAM /beegfs/modfac/apps/TURBOMOLE/7.0_intel_GA/bin/em64t-unknown-linux-gnu_mpi/ridft_mpi.
PLEASE WAIT UNTIL ridft HAS FINISHED.
Look for the output in slave1.output.
  this is node-proc. number 1 running on node c-8-31.local
  the total number of node-proc. spawned is            8
  parallel platform: MPP, or cluster with fast interconnect

 ridft (c-8-31.local) : TURBOMOLE V7.0.2( ) 15 Jan 2016 at 17:47:42
 Copyright (C) 2016 TURBOMOLE GmbH, Karlsruhe


    2017-11-20 19:11:15.498 



                                  r i d f t

                        DFT program with RI approximation 
                                for coulomb part 




                                                 
                                 References:     
                                                 
          TURBOMOLE:                             
              R. Ahlrichs, M. Baer, M. Haeser, H. Horn, and
              C. Koelmel
              Electronic structure calculations on workstation
              computers: the program system TURBOMOLE
              Chem. Phys. Lett. 162: 165 (1989)
          Density Functional:                              
              O. Treutler and R. Ahlrichs                      
              Efficient Molecular Numerical Integration Schemes
              J. Chem. Phys. 102: 346 (1995)                   
          Parallel Version:                                
              Performance of parallel TURBOMOLE for Density    
              Functional Calculations                          
              M. v. Arnim and R. Ahlrichs                      
              J. Comp. Chem. 19: 1746 (1998)                   
          RI-J Method:                                     
              Auxiliary Basis Sets to approximate Coulomb      
              Potentials                                       
              Chem. Phys. Lett. 240: 283 (1995)                
              K. Eichkorn, O. Treutler, H. Oehm, M. Haeser     
              and R. Ahlrichs                                  
              Chem. Phys. Lett. 242: 652 (1995)                
                                                           
              Auxiliary Basis Sets for Main Row Atoms and their
              Use to approximate Coulomb Potentials            
              K. Eichkorn, F. Weigend, O. Treutler and         
              R. Ahlrichs                                      
              Theo. Chem. Acc. 97: 119 (1997)                   
                                                           
              Accurate Coulomb-fitting basis sets for H to Rn 
              F. Weigend                                        
              Phys. Chem. Chem. Phys. 8: 1057 (2006)            
                                                           
          Multipole accelerated RI-J (MARI-J):             
              Fast evaluation of the Coulomb potential for     
              electron densities using multipole accelerated   
              resolution of identity approximation             
              M. Sierka, A. Hogekamp and R. Ahlrichs           
              J. Chem. Phys. 118: 9136 (2003)                  
          RI-JK Method:                                     
              A fully direct RI-HF algorithm: Implementation,
              optimised auxiliary basis sets, demonstration of
              accuracy and efficiency                         
              F. Weigend                                      
              Phys. Chem. Chem. Phys. 4: 4285 (2002)           
          Two-component HF and DFT with spin-orbit coupling:  
              Self-consistent treatment of spin-orbit         
              interactions with efficient Hartree-Fock and    
              density functional methods                      
              M. K. Armbruster, F. Weigend, C. van Wüllen and 
              W. Klopper                                      
              Phys. Chem. Chem. Phys. 10: 1748 (2008)         
          Relativistic all-electron 2c calculations           
              An efficient implementation of two-component    
              relativistic exact-decoupling methods for large 
              molecules                                       
              D. Peng, N. Middendorf, F. Weigend, M. Reiher   
              J. Chem. Phys. 138, 184105 (2013)               
                                         


 


              +--------------------------------------------------+
              |      general information about current run       |
              +--------------------------------------------------+

 

 SCF run will be profiled !


 DENSITY CONVERGENCE CHECK SWITCHED ON !
 SCF CONVERGENCE IF RMS(delta[D]) <     0.1000000000E-06

 PBE functional
 exchange:    LDA + PBE
 correlation: LDA (PW) + PBE
 A DFT calculation using the RI-J approximation will be carried out.
 Allocatable memory for RI due to $ricore (MB):       13000


              +--------------------------------------------------+
              | Atomic coordinate, charge and isotop information |
              +--------------------------------------------------+

                    atomic coordinates            atom    charge  isotop
          0.41762680    0.94097172   -3.47075615    c      6.000     0
         -0.38115719   -0.94193257    3.43201590    c      6.000     0
         -0.69331975    0.58671567   -0.99239775    c      6.000     0
          0.73023825   -0.58754151    0.95372772    c      6.000     0
          2.94185546    0.10085069   -3.91927675    c      6.000     0
         -2.90529028   -0.10101985    3.88035189    c      6.000     0
          4.04926869    0.43815509   -6.33093317    c      6.000     0
         -4.01279637   -0.43716306    6.29196394    c      6.000     0
          0.92422366   -2.09667831    5.46266008    c      6.000     0
         -0.88857707    2.09470090   -5.50138177    c      6.000     0
         -3.20832493    1.39735654   -0.45224206    c      6.000     0
          3.24579843   -1.39682503    0.41349113    c      6.000     0
         -4.27076249    1.06930894    1.87797054    c      6.000     0
          4.30813404   -1.06867138   -1.91692406    c      6.000     0
          0.23170404    2.40280920   -7.84029746    c      6.000     0
         -0.19677597   -2.40462339    7.80142071    c      6.000     0
          2.72369888    1.57093869   -8.26894026    c      6.000     0
         -2.68779127   -1.57073571    8.23003627    c      6.000     0
         -4.31889928    2.29834901   -1.91882446    h      1.000     0
          4.35657888   -2.29762129    1.88009713    h      1.000     0
         -2.80911488    2.75823662   -5.23977913    h      1.000     0
          2.84463917   -2.76087410    5.20174938    h      1.000     0
         -6.19114228    1.70668972    2.23324461    h      1.000     0
          6.22915747   -1.70442052   -2.27153997    h      1.000     0
         -5.93777388    0.21999428    6.58552551    h      1.000     0
          5.97470309   -0.21756100   -6.62488792    h      1.000     0
          0.85850225   -3.29934505    9.31874425    h      1.000     0
         -0.82403301    3.29616516   -9.35803065    h      1.000     0
          3.58810965    1.82255328  -10.11510007    h      1.000     0
         -3.55449247   -1.82059259   10.07539000    h      1.000     0
 
       center of nuclear mass  :    0.01819849   -0.00017106   -0.01941907
       center of nuclear charge:    0.01818960   -0.00015606   -0.01942066

              +--------------------------------------------------+
              |               basis set information              |
              +--------------------------------------------------+

              we will work with the 1s 3p 5d 7f 9g ... basis set
              ...i.e. with spherical basis functions...

   type   atoms  prim   cont   basis
   ---------------------------------------------------------------------------
    c       18     77     55   cc-pVQZ   [5s4p3d2f1g|21s6p3d2f1g]
    h       12     32     30   cc-pVQZ   [4s3p2d1f|6s3p2d1f]
   ---------------------------------------------------------------------------
   total:   30   1770   1350
   ---------------------------------------------------------------------------

   total number of primitive shells          :   45
   total number of contracted shells         :  390
   total number of cartesian basis functions : 1680
   total number of SCF-basis functions       : 1350


 integral neglect threshold       :  0.20E-13
 integral storage threshold THIZE :  0.10E-04
 integral storage threshold THIME :         5

 RI-J AUXILIARY BASIS SET information:

              we will work with the 1s 3p 5d 7f 9g ... basis set
              ...i.e. with spherical basis functions...

   type   atoms  prim   cont   basis
   ---------------------------------------------------------------------------
    c       18     70     49   cc-pVQZ   [6s4p3d1f1g|12s5p4d2f1g]
    h       12     16     11   cc-pVQZ   [3s1p1d|5s2p1d]
   ---------------------------------------------------------------------------
   total:   30   1452   1014
   ---------------------------------------------------------------------------

   total number of primitive shells          :   32
   total number of contracted shells         :  330
   total number of cartesian basis functions : 1242
   total number of SCF-basis functions       : 1014


 symmetry group of the molecule :   c1 

 the group has the following generators :
   c1(z)

    1 symmetry operations found

 there are 1 real representations :   a   

 maximum number of shells which are related by symmetry :  1


    mo occupation :
   irrep   mo's   occupied
    a     1350       60
 
 number of basis functions   :         1350
 number of occupied orbitals :           60
 
  
           ------------------
           density functional
           ------------------
 PBE functional
 exchange:    LDA + PBE
 correlation: LDA (PW) + PBE
 grinp -> nfun, dfgga, dfhybrid 
           6 T F
 iterations will be done with small grid
  
 spherical integration : Lebedev's spherical grid
 spherical gridsize    :           5
    i.e. gridpoints    :         590
 value for diffuse not defined
 radial integration    : Chebyshev 2nd kind (scaling 3)
 radial gridsize       :           8
 integration cells     :          30
 partition function    : becke
 partition sharpness   :           3
  

 <rddim> : input of entry tasksize
           from data group '$pardft' failed !

               Default values taken

 <rddim> : input of entry memdiv
           from data group '$pardft' failed !

               Default values taken
  RIDFT: memory allocation for DFT gridpoints
  MEMORY is divided by 1 as DEFAULT
 Each node can hold at most  the            1 -th part
 of the gridpoints    

 biggest AO integral is expected to be     3.537514283
  
           ------------------------
               RI-J - INFORMATION
           ------------------------
 
 
 **************************************************
 *      MEMORY ALLOCATION FOR PARALLEL RI-DFT     *
 **************************************************
 
 
MEMORY FOR (MU NU/ ALPHA), SEQUENTIAL RUN              12992 MByte
 
            DIFFERENCE IN MEMORY NEED:       DIAG./SLAVE  
 
      TOTAL DIFFERENCE :                     83 MByte
 
      difference in xcore:                    9 MByte
      difference in fatmat:                  25 MByte
      getcor calls skipped by slaves:        50 MByte
 
 
           Integral memory available for diagonal.     12992 MByte
 
           Integral memory available for slave             0 MByte
 
         MEMORY FOR (MU NU/ ALPHA) ON DIAGONALIZER     12992 MByte
 
         MEMORY FOR (MU NU/ ALPHA) ON ONE SLAVE            0 MByte
 
         TOTAL MEMORY FOR (MU NU/ ALPHA),ALL NODES     12992 MByte
 
 Contributions to RI integral batches: 
  neglected integral batches:       27479
  direct contribution:                  0
  memory contribution:       48766
 Memory core needed for (P|Q) and Cholesky      8 MByte
 Memory core minimum needed except of (P|Q)     8 MByte
 Total minimum memory core needed (sum)        16 MByte
  
 ****************************************
 Memory allocated for RI-J 13007 MByte
 ****************************************
                                            

          ------------------------
          nuclear repulsion energy  :   1136.97699216    
          ------------------------

 
          -----------------
          -S integrals
          -----------------

 1e-integrals will be neglected if expon. factor < 0.198926E-14
 
          -----------------
          -T+V integrals
          -----------------

 1e-integrals will be neglected if expon. factor < 0.198926E-14
 Difference densities >>NOT<< switched on in parallel ridft!

 automatic virtual orbital shift switched on 
      shift if e(lumo)-e(homo) < 0.10000000    


 DIIS switched on: error vector is FDS-SDF
 Max. Iterations for DIIS is     :   4
 DIIS matrix (see manual) 
    Scaling factor of diagonals  :  1.200
    threshold for scaling factor :  0.000

 scf convergence criterion : increment of total energy < .1000000D-08
                  and increment of one-electron energy < .1000000D-05


 <geterg> : there is no data group $energy 

  MOs are in ASCII format !


 reading orbital data $scfmo  from file mos . 

 orbital characterization : expanded
 
 mo provided and orthogonalized by Cholesky decomposition

 DSCF restart information will be dumped onto file mos


 Starting SCF iterations


 ITERATION  ENERGY          1e-ENERGY        2e-ENERGY     RMS[dD(SAO)]   TOL
   1  -690.54682464040    -3163.1058197     1335.5820029    0.000D+00 0.198D-13
                            Exc = -98.7789230834     Coul =  1434.36092601    
                              N = 119.99990729    
                            current damping = 0.700
 
          max. resid. norm for Fia-block=  2.687D-01 for orbital     11a         
          max. resid. fock norm         =  6.979D+00 for orbital   1243a         

 ITERATION  ENERGY          1e-ENERGY        2e-ENERGY     RMS[dD(SAO)]   TOL
   2  -692.13630694109    -3182.8524033     1353.7391042    0.123D-01 0.198D-13
                            Exc = -100.480810318     Coul =  1454.21991456    
                              N = 119.99992768    
                            current damping = 0.650
 
          Norm of current diis error:  4.6719    
          max. resid. norm for Fia-block=  1.154D-01 for orbital     21a         
          max. resid. fock norm         =  1.364D-01 for orbital     20a         

 ITERATION  ENERGY          1e-ENERGY        2e-ENERGY     RMS[dD(SAO)]   TOL
   3  -692.45487553004    -3187.0829191     1357.6510514    0.357D-02 0.198D-13
                            Exc = -100.925502406     Coul =  1458.57655385    
                              N = 119.99993451    
                            current damping = 0.550
 
          Norm of current diis error:  2.2333    
          max. resid. norm for Fia-block=  5.728D-02 for orbital     20a         
          max. resid. fock norm         =  6.518D-02 for orbital     20a         

 ITERATION  ENERGY          1e-ENERGY        2e-ENERGY     RMS[dD(SAO)]   TOL
   4  -692.54463093391    -3190.9317644     1361.4101413    0.121D-02 0.198D-13
                            Exc = -101.226242265     Coul =  1462.63638360    
                              N = 119.99994182    
                            current damping = 0.450
 
          Norm of current diis error: 0.83860    
          max. resid. norm for Fia-block=  2.244D-02 for orbital     20a         
          max. resid. fock norm         =  2.586D-02 for orbital     20a         

 ITERATION  ENERGY          1e-ENERGY        2e-ENERGY     RMS[dD(SAO)]   TOL
   5  -692.55864908549    -3191.4436769     1361.9080357    0.473D-03 0.198D-13
                            Exc = -101.321767105     Coul =  1463.22980279    
                              N = 119.99994387    
                            current damping = 0.300
 
          Norm of current diis error: 0.35017    
          max. resid. norm for Fia-block=  7.934D-03 for orbital     21a         
          max. resid. fock norm         =  1.215D-02 for orbital      8a         
          mo-orthogonalization: Cholesky decomposition

 ITERATION  ENERGY          1e-ENERGY        2e-ENERGY     RMS[dD(SAO)]   TOL
   6  -692.56043980202    -3192.6455876     1363.1081556    0.165D-03 0.198D-13
                            Exc = -101.382908328     Coul =  1464.49106396    
                              N = 119.99994619    
                            current damping = 0.200
 
          Norm of current diis error: 0.21380    
          max. resid. norm for Fia-block=  3.435D-03 for orbital     59a         
          max. resid. fock norm         =  6.766D-03 for orbital   1336a         

 ITERATION  ENERGY          1e-ENERGY        2e-ENERGY     RMS[dD(SAO)]   TOL
   7  -692.56130475983    -3192.2766298     1362.7383329    0.615D-04 0.198D-13
                            Exc = -101.384181866     Coul =  1464.12251477    
                              N = 119.99994621    
                            current damping = 0.250
 
          Norm of current diis error: 0.73774E-01
          max. resid. norm for Fia-block=  1.585D-03 for orbital     57a         
          max. resid. fock norm         =  2.962D-03 for orbital   1345a         

 ITERATION  ENERGY          1e-ENERGY        2e-ENERGY     RMS[dD(SAO)]   TOL
   8  -692.56135222697    -3192.3686326     1362.8302882    0.198D-04 0.198D-13
                            Exc = -101.382555806     Coul =  1464.21284399    
                              N = 119.99994612    
                            current damping = 0.300
 
          Norm of current diis error: 0.56377E-01
          max. resid. norm for Fia-block=  7.726D-04 for orbital     57a         
          max. resid. fock norm         =  1.706D-03 for orbital   1340a         

 ITERATION  ENERGY          1e-ENERGY        2e-ENERGY     RMS[dD(SAO)]   TOL
   9  -692.56142324753    -3192.3420928     1362.8036774    0.978D-05 0.198D-13
                            Exc = -101.383747974     Coul =  1464.18742539    
                              N = 119.99994626    
                            current damping = 0.350
 
          Norm of current diis error: 0.10220E-01
          max. resid. norm for Fia-block=  2.659D-04 for orbital     58a         
          max. resid. fock norm         =  6.276D-04 for orbital   1346a         

 ITERATION  ENERGY          1e-ENERGY        2e-ENERGY     RMS[dD(SAO)]   TOL
  10  -692.56142327136    -3192.3868206     1362.8484052    0.343D-05 0.198D-13
                            Exc = -101.385358123     Coul =  1464.23376334    
                              N = 119.99994627    
                            current damping = 0.400
 
          Norm of current diis error: 0.10203E-01
          max. resid. norm for Fia-block=  1.410D-04 for orbital     60a         
          max. resid. fock norm         =  2.822D-04 for orbital   1346a         
          mo-orthogonalization: Cholesky decomposition

 ITERATION  ENERGY          1e-ENERGY        2e-ENERGY     RMS[dD(SAO)]   TOL
  11  -692.56142551453    -3192.3666758     1362.8282581    0.165D-05 0.198D-13
                            Exc = -101.384931832     Coul =  1464.21318994    
                              N = 119.99994628    
                            current damping = 0.450
 
          Norm of current diis error: 0.28827E-02
          max. resid. norm for Fia-block=  5.927D-05 for orbital     59a         
          max. resid. fock norm         =  1.395D-04 for orbital   1333a         

 ITERATION  ENERGY          1e-ENERGY        2e-ENERGY     RMS[dD(SAO)]   TOL
  12  -692.56142563891    -3192.3620520     1362.8236342    0.590D-06 0.198D-13
                            Exc = -101.384600101     Coul =  1464.20823426    
                              N = 119.99994627    
                            current damping = 0.300
 
          Norm of current diis error: 0.16752E-02
          max. resid. norm for Fia-block=  2.346D-05 for orbital     59a         
          max. resid. fock norm         =  5.012D-05 for orbital   1336a         

 ITERATION  ENERGY          1e-ENERGY        2e-ENERGY     RMS[dD(SAO)]   TOL
  13  -692.56142569693    -3192.3626702     1362.8242524    0.302D-06 0.198D-13
                            Exc = -101.384613714     Coul =  1464.20886606    
                              N = 119.99994628    
                            current damping = 0.350
 
          Norm of current diis error: 0.46777E-03
          max. resid. norm for Fia-block=  7.655D-06 for orbital     59a         
          max. resid. fock norm         =  1.542D-05 for orbital   1337a         

 DENSITY CONVERGED !


 ITERATION  ENERGY          1e-ENERGY        2e-ENERGY     RMS[dD(SAO)]   TOL
  14  -692.56142570093    -3192.3621688     1362.8237509    0.845D-07 0.198D-13
                            Exc = -101.384629745     Coul =  1464.20838069    
                              N = 119.99994628    
                            current damping = 0.400
 
          Norm of current diis error: 0.17183E-03
          max. resid. norm for Fia-block=  3.385D-06 for orbital     57a         
          max. resid. fock norm         =  7.007D-06 for orbital   1338a         

 DENSITY CONVERGED !


 ITERATION  ENERGY          1e-ENERGY        2e-ENERGY     RMS[dD(SAO)]   TOL
  15  -692.56142570146    -3192.3623139     1362.8238961    0.387D-07 0.198D-13
                            Exc = -101.384626584     Coul =  1464.20852266    
                              N = 119.99994628    
                            current damping = 0.450
 
          Norm of current diis error: 0.88117E-04
          max. resid. norm for Fia-block=  1.288D-06 for orbital     50a         
          max. resid. fock norm         =  2.962D-06 for orbital      9a         
          mo-orthogonalization: Cholesky decomposition

 DENSITY CONVERGED !


 ITERATION  ENERGY          1e-ENERGY        2e-ENERGY     RMS[dD(SAO)]   TOL
  16  -692.56142570162    -3192.3623970     1362.8239791    0.135D-07 0.198D-13
                            Exc = -101.384629558     Coul =  1464.20860868    
                              N = 119.99994628    
                            current damping = 0.300
 
          Norm of current diis error: 0.26727E-04
          max. resid. norm for Fia-block=  4.917D-07 for orbital     60a         
          max. resid. fock norm         =  1.145D-06 for orbital   1346a         

 DENSITY CONVERGED !


 ITERATION  ENERGY          1e-ENERGY        2e-ENERGY     RMS[dD(SAO)]   TOL
  17  -692.56142570166    -3192.3623248     1362.8239069    0.643D-08 0.198D-13
                            Exc = -101.384627391     Coul =  1464.20853432    
                              N = 119.99994628    
                            current damping = 0.350
 
          Norm of current diis error: 0.10938E-04
          max. resid. norm for Fia-block=  1.691D-07 for orbital     58a         
          max. resid. fock norm         =  4.190D-07 for orbital   1346a         

 ENERGY & DENSITY CONVERGED !


 ITERATION  ENERGY          1e-ENERGY        2e-ENERGY     RMS[dD(SAO)]   TOL
  18  -692.56142171972    -3192.3623350     1362.8239212    0.185D-08 0.198D-13
                            Exc = -101.384623760     Coul =  1464.20854493    
                              N = 120.00001968    
                            current damping = 0.400
 
          Norm of current diis error: 0.28868E-05
          max. resid. norm for Fia-block=  4.526D-08 for orbital     59a         
          max. resid. fock norm         =  8.977D-08 for orbital   1333a         

 End of SCF iterations

   convergence criteria satisfied after   18 iterations


                  ------------------------------------------ 
                 |  total energy      =   -692.56142171972  |
                  ------------------------------------------ 
                 :  kinetic energy    =    689.20470189574  :
                 :  potential energy  =  -1381.76612361546  :
                 :  virial theorem    =      1.99515318105  :
                 :  wavefunction norm =      1.00000000000  :
                  .......................................... 


 <geterg> : there is no data group $energy 


 <skperg> : $end is missing 


 orbitals $scfmo  will be written to file mos

    irrep                 56a         57a         58a         59a         60a   
 eigenvalues H         -0.25947    -0.25315    -0.22277    -0.21005    -0.19265
            eV          -7.0606     -6.8886     -6.0619     -5.7158     -5.2424
 occupation              2.0000      2.0000      2.0000      2.0000      2.0000 

    irrep                 61a         62a         63a         64a         65a   
 eigenvalues H         -0.08368    -0.07049    -0.06108    -0.02285    -0.02133
            eV          -2.2770     -1.9181     -1.6622     -0.6218     -0.5805
 
 
 ! grave: sending quit signal to master process
 
 
 
 
 ==============================================================================
                           electrostatic moments
 ==============================================================================

 reference point for electrostatic moments:    0.00000   0.00000   0.00000

 
              nuc           elec       ->  total
 ------------------------------------------------------------------------------
                          charge      
 ------------------------------------------------------------------------------
         120.000000    -120.000000      -0.000000
 
 ------------------------------------------------------------------------------
                       dipole moment  
 ------------------------------------------------------------------------------
   x       2.182752      -2.182846      -0.000094
   y      -0.018727       0.019018       0.000291
   z      -2.330479       2.330497       0.000018
 
   | dipole moment | =     0.0003 a.u. =     0.0008 debye 
 
 ------------------------------------------------------------------------------
                     quadrupole moment
 ------------------------------------------------------------------------------
  xx     978.236940   -1048.028867     -69.791927
  yy     266.068224    -345.843206     -79.774983
  zz    3308.960616   -3377.777495     -68.816880
  xy    -102.394683      97.815097      -4.579586
  xz    -876.684553     875.158301      -1.526252
  yz    -710.931234     707.079454      -3.851779
 
     1/3  trace=     -72.794596
     anisotropy=      14.992026
 
 ==============================================================================
 

    ridft profiling
  --------------------------------------------------------------------
             module   cpu total (s)       %  wall total (s)       %

               RIDFT           524.5  100.00           524.3  100.00
         Ridft_b_scf            55.6   10.59            55.6   10.60
        b_scf_prelim             0.0    0.00             0.0    0.00
        b_scf_molinp             0.0    0.00             0.0    0.00
         b_scf_init0             0.0    0.00             0.0    0.00
        b_scf_auxbas             0.0    0.00             0.0    0.00
      b_scf_symmetry             0.0    0.00             0.0    0.00
         b_scf_cosmo             0.0    0.00             0.0    0.00
        b_scf_params             3.1    0.59             3.1    0.59
          b_scf_ri-j            45.3    8.64            45.3    8.64
    b_scf_ri-j_auxpq            45.3    8.64            45.3    8.64
     ri-j_auxpq_chol             0.2    0.04             0.2    0.04
         b_scf_1elec             0.9    0.18             0.9    0.18
       b_scf_moinput             6.2    1.18             6.2    1.18
     moinput_orthmos             5.9    1.12             5.9    1.12
    b_scf_dft-dstmax             0.0    0.00             0.0    0.00
           Ridft_scf           468.4   89.31           468.3   89.31
          Scf_b_loop             0.0    0.00             0.0    0.00
                noga             0.0    0.00             0.0    0.00
            Scf_loop           467.1   89.06           467.0   89.05
     scf_loop_mkdmat             2.3    0.44             2.4    0.46
       scf_loop_ri-j            34.4    6.55            34.3    6.55
      parlp1.bc.dens             1.1    0.20             1.1    0.20
        parlp1.gs.gp             0.0    0.00             0.0    0.00
        parlp2.bc.gq             0.0    0.00             0.0    0.00
        scf_loop_dft           346.5   66.07           346.2   66.03
      pardft.bc.dens             0.0    0.00             0.0    0.00
        dft_grid_con             0.5    0.09             0.5    0.09
           dft_xcrhf           340.2   64.86           339.9   64.83
          dft_getval            16.7    3.18            16.6    3.17
          funct2 dst             0.1    0.02             0.1    0.02
      funct2 f2loop1             4.3    0.81             4.2    0.81
      funct2 f2loop2             6.2    1.17             6.2    1.17
          funct2 s+c             5.9    1.12             5.9    1.12
        funct2 cmf_2             5.4    1.04             5.4    1.04
          dft_mkdens           144.4   27.54           144.4   27.53
         dft_gga-fun             0.2    0.04             0.2    0.04
          dft_mkfock           178.6   34.05           178.4   34.03
     pardft.red.fock            28.1    5.37            28.1    5.36
     scf_loop_energy             0.0    0.01             0.0    0.01
     scf_loop_mkfock             0.0    0.01             0.1    0.01
       scf_loop_diis            35.0    6.68            35.0    6.67
       scf_loop_diag            23.4    4.45            23.4    4.46
         diag_tritrn             6.9    1.31             6.9    1.31
          diag_rdiag            16.4    3.12            16.4    3.13
     scf_loop_modump            19.4    3.70            19.4    3.71
      scf_loop_ortho             5.3    1.01             5.3    1.01
          Scf_a_loop             1.3    0.25             1.3    0.25
         Ridft_a_scf             0.5    0.09             0.5    0.10
         a_scf_fanal             0.3    0.06             0.3    0.06
 


    ------------------------------------------------------------------------
         total  cpu-time :  8 minutes and 46 seconds
         total wall-time :  8 minutes and 46 seconds
    ------------------------------------------------------------------------


   ****  ridft : all done  ****


    2017-11-20 19:20:01.454 

