
   OpenMP run-time library returned nthreads = 28

 ricc2 (c-19-413) : TURBOMOLE V7.3 ( 22142 ) 4 Jul 2018 at 18:12:42
 Copyright (C) 2018 TURBOMOLE GmbH, Karlsruhe


    2019-04-02 17:36:55.462 



                              R I C C 2 - PROGRAM

                          the quantum chemistry groups
                             at the universities in
                           Karlsruhe, Bochum & Mainz
                                   Germany



   *-----------------------------------------------------------------------*
   |                     program will use 28 thread(s)                     |
   *-----------------------------------------------------------------------*


              +--------------------------------------------------+
              | Atomic coordinate, charge and isotop information |
              +--------------------------------------------------+

                    atomic coordinates            atom    charge  isotop
          0.72286221   -0.13342784    1.44922307    c      6.000     0
         -1.96652361    0.74986460    2.00487836    c      6.000     0
         -3.34779081   -0.53195838    1.16847480    h      1.000     0
         -2.31438118    0.82341998    4.03554587    h      1.000     0
         -2.29425231    2.63375749    1.23416246    h      1.000     0
          1.11653991   -2.77188457    2.54730908    c      6.000     0
          3.02906809   -3.44487625    2.17337942    h      1.000     0
          0.82953040   -2.77174821    4.58879681    h      1.000     0
         -0.20771691   -4.11711656    1.71835424    h      1.000     0
          2.60455104    1.69779678    2.64400926    c      6.000     0
          4.54364612    1.10632267    2.26905776    h      1.000     0
          2.35040532    1.78763235    4.68786235    h      1.000     0
          2.35908342    3.59997103    1.88774326    h      1.000     0
          1.13754132   -0.20982422   -1.40424905    c      6.000     0
          0.86778458    1.65736370   -2.23535363    h      1.000     0
          3.04943970   -0.83801691   -1.85131197    h      1.000     0
         -0.18808592   -1.50715074   -2.30399320    h      1.000     0
         -0.70870101    0.13098378   11.27502892    c      6.000     0
          1.98002486   -0.75523352   10.72058414    c      6.000     0
          2.32856444   -0.82955485    8.69003474    h      1.000     0
          3.36223509    0.52538253   11.55723313    h      1.000     0
          2.30555602   -2.63930189   11.49182025    h      1.000     0
         -1.09873446    2.77010260   10.17741840    c      6.000     0
         -3.01106756    3.44470732   10.54940631    h      1.000     0
          0.22580973    4.11383294   11.00837211    h      1.000     0
         -0.80939997    2.77047414    8.13624516    h      1.000     0
         -1.12499727    0.20690583   14.12823878    c      6.000     0
         -3.03591886    0.83859778   14.57435245    h      1.000     0
          0.20255888    1.50127191   15.02933243    h      1.000     0
         -0.85937152   -1.66112689   14.95868221    h      1.000     0
         -2.59174265   -1.69785095   10.07855563    c      6.000     0
         -2.34810780   -3.60075864   10.83365046    h      1.000     0
         -4.53039209   -1.10490619   10.45345434    h      1.000     0
         -2.33718829   -1.78661969    8.03467195    h      1.000     0
 
       center of nuclear mass  :    0.00708231   -0.00125842    6.36209674
       center of nuclear charge:    0.00708251   -0.00125960    6.36209468

              +--------------------------------------------------+
              |               basis set information              |
              +--------------------------------------------------+

              we will work with the 1s 3p 5d 7f 9g ... basis set
              ...i.e. with spherical basis functions...

   type   atoms  prim   cont   basis
   ---------------------------------------------------------------------------
    c       10     50     30   cc-pVTZ   [4s3p2d1f|18s5p2d1f]
    h       24     16     14   cc-pVTZ   [3s2p1d|5s2p1d]
   ---------------------------------------------------------------------------
   total:   34    884    636
   ---------------------------------------------------------------------------

   total number of primitive shells          :   34
   total number of contracted shells         :  244
   total number of cartesian basis functions :  710
   total number of SCF-basis functions       :  636


 symmetry group of the molecule :   c1 

 the group has the following generators :
   c1(z)

    1 symmetry operations found

 there are 1 real representations :   a   


   =========================================================================


     restricted closed shell calculation for the wavefunction models:
               MP2        - Second Order Moeller Plesset PT


     global parameters for ricc2 program:

        hard restart (reuse of interm.) :  disabled
        soft restart (reuse of vectors) :  disabled
        threshold for vector function   :    0.100000E-05
        convergence threshold energy    :    0.100000E-06
        linear dependence threshold     :    0.100000E-13
        global print level              :      1
        maximum number of iterations    :   300
        maximum number DIIS vectors     :    10
        max. dim. of reduced space      :   100
        core memory limit (MB)          : 84000


     MP2 energy only: Energy will be calculated directly from T2 amplitudes!

     Scratch Directory : 


   =========================================================================

    der. integral neglect threshold  :  0.10E-07
    integral neglect threshold       :  0.47E-11
    integral storage threshold THIZE :  0.10E-04
    integral storage threshold THIME :         5


                  +------------------------------------------+
                  |     Auxiliary basis set information      |
                  +------------------------------------------+

              we will work with the 1s 3p 5d 7f 9g ... basis set
              ...i.e. with spherical basis functions...

   type   atoms  prim   cont   basis
   ---------------------------------------------------------------------------
    c       10     81     81   cc-pVTZ   [8s6p5d3f1g|8s6p5d3f1g]
    h       24     30     30   cc-pVTZ   [4s3p2d1f|4s3p2d1f]
   ---------------------------------------------------------------------------
   total:   34   1530   1530
   ---------------------------------------------------------------------------

   total number of primitive shells          :   33
   total number of contracted shells         :  470
   total number of cartesian basis functions : 1850
   total number of SCF-basis functions       : 1530


 maximum number of shells which are related by symmetry :  1


 The symmetry information takes   1 MB

*---------------------------------------------------------------------*
|               simplified C1 algorithm will be applied               |
*---------------------------------------------------------------------*
  MOs are in ASCII format !


 reading orbital data $scfmo  from file mos
 orbital characterization : scfconv=9



              +--------------------------------------------+
              | list of orbitals that will be kept frozen: |
              +--------------------------------------------+
              |   irrep   index      energy     occ/vir    |
              +--------------------------------------------+
              |   a         1      -11.2275     occupied   |
              |   a         2      -11.2275     occupied   |
              |   a         3      -11.2058     occupied   |
              |   a         4      -11.2058     occupied   |
              |   a         5      -11.2058     occupied   |
              |   a         6      -11.2058     occupied   |
              |   a         7      -11.2058     occupied   |
              |   a         8      -11.2058     occupied   |
              |   a         9      -11.2056     occupied   |
              |   a        10      -11.2056     occupied   |
              +--------------------------------------------+



   Molecular Orbital Statistic:
   ============================

   -----------------------------
   orbitals in total:
   -----------------------------
    frozen occupied :     10
    active occupied :     32
    active virtual  :    594
    frozen virtual  :      0
    all together    :    636
   -----------------------------


     time in riccmos       cpu:  7.16 sec    wall:  0.38 sec    ratio: 18.8

     total memory allocated for calculation of (Q|P)**(-1/2) : 27 MiB


     calculation of (P|Q) ...
     time in lp2sym        cpu:  1.90 sec    wall:  0.07 sec    ratio: 28.0


     calculation of the Cholesky decomposition of (P|Q)**(-1) ...
     time in invmetri      cpu:  5.47 sec    wall:  0.20 sec    ratio: 27.6

   threshold for RMS(d[D]) in SCF was     :  0.10E-06
   integral neglect threshold             :  0.47E-11
   derivative integral neglect threshold  :  0.10E-07


   =========================================================================

     Energy of reference wave function is  -392.8046316416000
     Maximum orbital residual is           0.5968264110087E-07


     Number of symmetry-nonredundant auxiliary basis functions:     1530

     Block lengths for integral files:
        frozen occupied (BOI):        1 MiB
        active occupied (BJI):        1 MiB
        active virtual  (BAI):        7 MiB
        frozen virtual  (BGI):        0 MiB
               general  (BTI):        8 MiB

   =========================================================================




   **************************************************************************
   *                                                                        *
   *          OPTIMIZATION OF THE GROUND STATE CLUSTER AMPLITUDES           *
   *                                                                        *
   **************************************************************************


   Iter.   MP2 energy       Norm(Omega)   Norm(t1)  Norm(t2)     cpu    wall
   ...........................................................................
    1   -394.6094689838     ------          0.00000   0.45935    0.79    0.03
   ...........................................................................


     time in total         cpu: 47.31 sec    wall:  1.75 sec    ratio: 27.0


     **********************************************************************
     *                                                                    *
     *   RHF  energy                             :   -392.8046316416      *
     *   MP2 correlation energy (doubles)        :     -1.8048373422      *
     *                                                                    *
     *   Final MP2 energy                        :   -394.6094689838      *
     *                                                                    *
     *    E(S)   =     -1.2126706782      E(T)   =     -0.5921666640      *
     *    E(OS)  =     -1.4100595662      E(SS)  =     -0.3947777760      *
     *                                                                    *
     *   SCS-MP2 energy                          :   -394.6282957131      *
     *   (computed with  C(OS) =   1.2000  and  C(SS) =   0.3333)         *
     *                                                                    *
     *   SOS-MP2 energy                          :   -394.6377090777      *
     *   (computed with  C(OS) =   1.3000)                                *
     *                                                                    *
     *   Norm of MP1 T2 amplitudes               :      0.4593511582      *
     *                                                                    *
     **********************************************************************



    ------------------------------------------------------------------------
         total  cpu-time :  1 minutes and 47 seconds
         total wall-time :   4.05 seconds
    ------------------------------------------------------------------------

   ****  ricc2 : all done  ****


    2019-04-02 17:36:59.491 

