STARTING ridft ON 16 PROCESSORS!
RUNNING PROGRAM /sopt/TURBOMOLE/7.3-official/bin/em64t-unknown-linux-gnu_smp/ridft_mpi.
           SMPCPUS    set: Shared-memory Parallelization with  16 CPUs.

           SMP Parallelization Reference:
           C. van Wullen, J. Comput. Chem. 32 (2011) 1195--1201
 operating system is UNIX !

 ridft (c-3-41) : TURBOMOLE V7.3 ( 22118 ) 1 Jul 2018 at 20:38:15
 Copyright (C) 2018 TURBOMOLE GmbH, Karlsruhe


    2019-03-12 12:15:01.960 



                                  r i d f t

                        DFT program with RI approximation 
                                for coulomb part 




                                                 
                                 References:     
                                                 
          TURBOMOLE:                             
              R. Ahlrichs, M. Baer, M. Haeser, H. Horn, and
              C. Koelmel
              Electronic structure calculations on workstation
              computers: the program system TURBOMOLE
              Chem. Phys. Lett. 162: 165 (1989)
          Density Functional:                              
              O. Treutler and R. Ahlrichs                      
              Efficient Molecular Numerical Integration Schemes
              J. Chem. Phys. 102: 346 (1995)                   
          Parallel Version:                                
              Performance of parallel TURBOMOLE for Density    
              Functional Calculations                          
              M. v. Arnim and R. Ahlrichs                      
              J. Comp. Chem. 19: 1746 (1998)                   
          RI-J Method:                                     
              Auxiliary Basis Sets to approximate Coulomb      
              Potentials                                       
              Chem. Phys. Lett. 240: 283 (1995)                
              K. Eichkorn, O. Treutler, H. Oehm, M. Haeser     
              and R. Ahlrichs                                  
              Chem. Phys. Lett. 242: 652 (1995)                
                                                           
              Auxiliary Basis Sets for Main Row Atoms and their
              Use to approximate Coulomb Potentials            
              K. Eichkorn, F. Weigend, O. Treutler and         
              R. Ahlrichs                                      
              Theo. Chem. Acc. 97: 119 (1997)                   
                                                           
              Accurate Coulomb-fitting basis sets for H to Rn 
              F. Weigend                                        
              Phys. Chem. Chem. Phys. 8: 1057 (2006)            
                                                           
          Multipole accelerated RI-J (MARI-J):             
              Fast evaluation of the Coulomb potential for     
              electron densities using multipole accelerated   
              resolution of identity approximation             
              M. Sierka, A. Hogekamp and R. Ahlrichs           
              J. Chem. Phys. 118: 9136 (2003)                  
          RI-JK Method:                                     
              A fully direct RI-HF algorithm: Implementation,
              optimised auxiliary basis sets, demonstration of
              accuracy and efficiency                         
              F. Weigend                                      
              Phys. Chem. Chem. Phys. 4: 4285 (2002)           
          Two-component HF and DFT with spin-orbit coupling:  
              Self-consistent treatment of spin-orbit         
              interactions with efficient Hartree-Fock and    
              density functional methods                      
              M. K. Armbruster, F. Weigend, C. van Wüllen and 
              W. Klopper                                      
              Phys. Chem. Chem. Phys. 10: 1748 (2008)         
          Two-component difference density and DIIS algorithm 
              Efficient two-component self-consistent field   
              procedures and gradients: implementation in     
              TURBOMOLE and application to Au20-              
              A. Baldes, F. Weigend                           
              Mol. Phys. 111: 2617 (2013)                     
          Relativistic all-electron 2c calculations           
              An efficient implementation of two-component    
              relativistic exact-decoupling methods for large 
              molecules                                       
              D. Peng, N. Middendorf, F. Weigend, M. Reiher   
              J. Chem. Phys. 138: 184105 (2013)               
          Finite nucleus model and SNSO approximation         
              Efficient implementation of one- and two-       
              component analytical energy gradients in exact  
              two-component theory                            
              Y. J. Franzke, N. Middendorf, F. Weigend        
              J. Chem. Phys. 148: 104110 (2018)               
                                         




              +--------------------------------------------------+
              |      general information about current run       |
              +--------------------------------------------------+

 
 PBE functional
 exchange:    LDA + PBE
 correlation: LDA (PW) + PBE
 A DFT calculation using the RI-J approximation will be carried out.
 Allocatable memory for RI due to $ricore (MB):                  8000


              +--------------------------------------------------+
              | Atomic coordinate, charge and isotop information |
              +--------------------------------------------------+

                    atomic coordinates            atom    charge  isotop
          0.32213778    0.95645082    9.13624764    c      6.000     0
          3.05515170    1.29430996    8.27649503    c      6.000     0
          3.84100701    3.05794955    9.00105945    h      1.000     0
          4.23320569   -0.25642883    8.95463056    h      1.000     0
          3.16968637    1.33095418    6.21870758    h      1.000     0
          0.21935298    0.89716796   12.01782548    c      6.000     0
         -1.71910923    0.65637825   12.67750577    h      1.000     0
          1.34450708   -0.66315409   12.75964453    h      1.000     0
          0.95312322    2.65061578   12.81700121    h      1.000     0
         -0.71604003   -1.51813039    8.07744161    c      6.000     0
         -2.67166772   -1.80210905    8.66830528    h      1.000     0
          0.39220229   -3.12245829    8.74982746    h      1.000     0
         -0.66165403   -1.51898601    6.01704629    h      1.000     0
         -1.26782636    3.15717237    8.16076067    c      6.000     0
         -1.22711985    3.22525994    6.10096190    h      1.000     0
         -3.23274309    2.96107630    8.75504643    h      1.000     0
         -0.55794583    4.95372455    8.88283808    h      1.000     0
 
       center of nuclear mass  :    0.32245504    0.95717191    9.13371952
       center of nuclear charge:    0.32238448    0.95701539    9.13369517

              +--------------------------------------------------+
              |               basis set information              |
              +--------------------------------------------------+

              we will work with the 1s 3p 5d 7f 9g ... basis set
              ...i.e. with spherical basis functions...

   type   atoms  prim   cont   basis
   ---------------------------------------------------------------------------
    c        5     77     57   def2-QZVP   [7s4p3d2f1g|15s8p3d2f1g]
    h       12     33     30   def2-QZVP   [4s3p2d1f|7s3p2d1f]
   ---------------------------------------------------------------------------
   total:   17    781    645
   ---------------------------------------------------------------------------

   total number of primitive shells          :   42
   total number of contracted shells         :  205
   total number of cartesian basis functions :  780
   total number of SCF-basis functions       :  645


 integral neglect threshold       :  0.43E-11
 integral storage threshold THIZE :  0.10E-04
 integral storage threshold THIME :         5

 RI-J AUXILIARY BASIS SET information:

              we will work with the 1s 3p 5d 7f 9g ... basis set
              ...i.e. with spherical basis functions...

   type   atoms  prim   cont   basis
   ---------------------------------------------------------------------------
    c        5     70     49   def2-QZVP   [6s4p3d1f1g|12s5p4d2f1g]
    h       12     16     11   def2-QZVP   [3s1p1d|5s2p1d]
   ---------------------------------------------------------------------------
   total:   17    542    377
   ---------------------------------------------------------------------------

   total number of primitive shells          :   32
   total number of contracted shells         :  135
   total number of cartesian basis functions :  449
   total number of SCF-basis functions       :  377


 symmetry group of the molecule :   c1 

 the group has the following generators :
   c1(z)

    1 symmetry operations found

 there are 1 real representations :   a   

 maximum number of shells which are related by symmetry :  1


    mo occupation :
   irrep   mo's   occupied
    a      645       21
 
 number of basis functions   :                    645
 number of occupied orbitals :                     21
 
  
           ------------------
           density functional
           ------------------
 PBE functional
 exchange:    LDA + PBE
 correlation: LDA (PW) + PBE

 iterations will be done with small grid
  
 spherical integration : Lebedev's spherical grid
 spherical gridsize    :                     4
    i.e. gridpoints    :                   434
 value for diffuse not defined
 radial integration    : Chebyshev 2nd kind (scaling 3)
 radial gridsize       :                     6
 integration cells     :                    17
 partition function    : becke
 partition sharpness   :                     3
  

 biggest AO integral is expected to be     5.262544080
  
           ------------------------
               RI-J - INFORMATION
           ------------------------
 Contributions to RI integral batches: 
  neglected integral batches:                  1944
  direct contribution:                            0
  memory contribution:                 19171
 Memory core needed for (P|Q) and Cholesky      2 MByte
 Memory core minimum needed except of (P|Q)     3 MByte
 Total minimum memory core needed (sum)         4 MByte
  
 ****************************************
 Memory allocated for RI-J   966 MByte
 ****************************************
                                            

          ------------------------
          nuclear repulsion energy  :   199.373296426    
          ------------------------

   .------------------------------.
   |            DFT-D4            |
   |          ==========          |
   |  E. Caldeweyher,  S. Grimme  |
   |   University of Bonn, MCTC   |
   |     02/2018, Version 1.0     |
   '------------------------------'
  This code comes without any warranty

 Cite this work as:
   E. Caldeweyher, C. Bannwarth, and S. Grimme,
   J. Chem. Phys., 2017, 147, 034112.
   E. Caldeweyher, S. Ehlert, and S. Grimme,
   J. Chem. Phys., in preparation.

 Contributions:
   P. Shushkov - GBSA(H2O)
   S. Ehlert   - MBD, DFA fit

number of atoms            :    17
number of electrons        :    32
charge                     :  0
spin                       : 0.0
 Found param_gfn2.xtb file !
========================================================================
    G F N  parametrization, version 3
   Geometries Frequencies Non-covalent interactions
 /sopt/TURBOMOLE/7.3-official/parameter/param_gfn2.xtb
========================================================================
 method parameters:
------------------------------------------------------------------------
k(s)        :               1.8500
k(p)        :               2.2300
k(d)        :               2.2300
k(f)        :               2.0000
kEN (H0ij)  :              -2.0000
D3 a1       :               0.5200
D3 a2       :               5.0000
D3 s8       :               2.7000
D3atm       :               5.0000
alphaj      :               2.0000
AESdamp     :               4.0000
AESrad      :               3.0000
expscalexp  :               5.0000
------------------------------------------------------------------------
------------------------------------------------------------------------
 xTB basis
------------------------------------------------------------------------
  Z AO/shell   Hii/eV     exponent
  1     Wed Apr 25 08:07:45 CEST 2018   EN: 2.200 GM2: 0.406  GM3: 0.0800  RAES: 1.40
     1s    -10.707211    1.230000
  6     Wed Apr 25 08:07:45 CEST 2018   EN: 2.550 GM2: 0.538  GM3: 0.1500  RAES: 3.00
     2s    -13.970922    2.096432
     2p    -10.063292    1.800000
------------------------------------------------------------------------
 DFT-D4 reference setup
------------------------------------------------------------------------
 C      q(ref)        CN(ref)   cov. CN(ref)  alpha(AIM,ref)
     0.0000000      0.0000000      0.0000000     12.3555336
    -0.1299310      0.9367838      0.9179641     12.6203061
    -0.0788263      1.9884028      1.9096951      9.3103249
    -0.0767301      2.9881158      2.8401678      8.8356702
    -0.0945886      3.9165802      3.7567914      6.6924619
    -0.0285648      3.3673832      3.0308559      8.9184424
     0.0506204      0.9979550      0.8555886      7.7402501
 H      q(ref)        CN(ref)   cov. CN(ref)  alpha(AIM,ref)
     0.0000000      0.0000000      0.0000000      5.0540161
     0.0000000      0.8115055      0.8943405      2.7207580
 no old-style atom pair restraing (fixing) potential
------------------------------------------------------------------------
 SCC calculation
------------------------------------------------------------------------

------------------------------------------------------------------------
 Dispersion Energy Calculation
 * damping parameters for pbe-D4
 s6       :    1.0000
 s8       :    0.9516
 a1       :    0.4044
 a2       :    4.6501
========================================================================
 Edisp  /kcal,au:    -8.1329  -0.01296068
------------------------------------------------------------------------
 E(2)   /kcal,au:    -8.2730  -0.01318394
 Emany  /kcal,au:     0.1401   0.00022326
 Eresp  /kcal,au:     0.0000   0.00000000
========================================================================
 nuclear repulsion energy                  =     199.373296426
 empirical dispersive energy correction    =      -0.012960677
 nuclear repulsion + dispersion correction =     199.360335748


         -----------------
         -S,T+V- integrals
         -----------------

 1e-integrals will be neglected if expon. factor < 0.428457E-12
 Difference densities >>NOT<< switched on in parallel ridft!

 DIIS switched on: error vector is FDS-SDF
 Max. Iterations for DIIS is     :   4
 DIIS matrix (see manual) 
    Scaling factor of diagonals  :  1.200
    threshold for scaling factor :  0.000

 scf convergence criterion : increment of total energy < .1000000D-06
                  and increment of one-electron energy < .1000000D-03

  MOs are in ASCII format !


 automatic virtual orbital shift switched on 
      shift if e(lumo)-e(homo) < 0.10000000    


 reading orbital data $scfmo  from file mos
 orbital characterization : expanded
 mo provided and orthogonalized by Cholesky decomposition

 DSCF restart information will be dumped onto file mos


 Starting SCF iterations

          Overall gridpoints after grid construction =         38730

 ITERATION  ENERGY          1e-ENERGY        2e-ENERGY     NORM[dD(SAO)]  TOL
   1  -196.89123737294    -650.70695054     254.45537742    0.000D+00 0.427D-11
                            Exc = -30.3327315522     Coul =  284.788108975    
                              N = 42.000098905    
                            current damping = 0.700
 
          max. resid. norm for Fia-block=  4.474D-01 for orbital      6a         
          max. resid. fock norm         =  4.091D+01 for orbital    563a         

 ITERATION  ENERGY          1e-ENERGY        2e-ENERGY     NORM[dD(SAO)]  TOL
   2  -197.43265998911    -656.56965221     259.77665648    0.000D+00 0.427D-11
                            Exc = -30.9612240789     Coul =  290.737880555    
                              N = 42.000096529    
                            current damping = 0.650
 
          Norm of current diis error:  2.6233    
          max. resid. norm for Fia-block=  1.016D-01 for orbital      6a         
          max. resid. fock norm         =  1.243D-01 for orbital     46a         

 ITERATION  ENERGY          1e-ENERGY        2e-ENERGY     NORM[dD(SAO)]  TOL
   3  -197.53805775978    -657.50747838     260.60908487    0.000D+00 0.427D-11
                            Exc = -31.1473732011     Coul =  291.756458072    
                              N = 42.000096646    
                            current damping = 0.550
 
          Norm of current diis error:  1.2493    
          max. resid. norm for Fia-block=  4.572D-02 for orbital      6a         
          max. resid. fock norm         =  5.241D-02 for orbital      6a         

 ITERATION  ENERGY          1e-ENERGY        2e-ENERGY     NORM[dD(SAO)]  TOL
   4  -197.56847047344    -658.85926231     261.93045609    0.000D+00 0.427D-11
                            Exc = -31.3027508764     Coul =  293.233206963    
                              N = 42.000100750    
                            current damping = 0.450
 
          Norm of current diis error: 0.44544    
          max. resid. norm for Fia-block=  1.893D-02 for orbital      6a         
          max. resid. fock norm         =  2.220D-02 for orbital      6a         

 ITERATION  ENERGY          1e-ENERGY        2e-ENERGY     NORM[dD(SAO)]  TOL
   5  -197.57279240493    -658.81788231     261.88475416    0.000D+00 0.427D-11
                            Exc = -31.3354077979     Coul =  293.220161959    
                              N = 42.000102172    
                            current damping = 0.500
 
          Norm of current diis error: 0.19571    
          max. resid. norm for Fia-block=  7.165D-03 for orbital     10a         
          max. resid. fock norm         =  8.177D-03 for orbital     10a         
          mo-orthogonalization: Cholesky decomposition

 ITERATION  ENERGY          1e-ENERGY        2e-ENERGY     NORM[dD(SAO)]  TOL
   6  -197.57359338375    -659.16454809     262.23061896    0.000D+00 0.427D-11
                            Exc = -31.3638196576     Coul =  293.594438618    
                              N = 42.000103302    
                            current damping = 0.550
 
          Norm of current diis error: 0.62168E-01
          max. resid. norm for Fia-block=  2.429D-03 for orbital      6a         
          max. resid. fock norm         =  3.326D-03 for orbital    641a         

 ITERATION  ENERGY          1e-ENERGY        2e-ENERGY     NORM[dD(SAO)]  TOL
   7  -197.57368011362    -659.12099687     262.18698101    0.000D+00 0.427D-11
                            Exc = -31.3653063220     Coul =  293.552287332    
                              N = 42.000103455    
                            current damping = 0.600
 
          Norm of current diis error: 0.17159E-01
          max. resid. norm for Fia-block=  6.723D-04 for orbital      6a         
          max. resid. fock norm         =  7.565D-04 for orbital      6a         

 ITERATION  ENERGY          1e-ENERGY        2e-ENERGY     NORM[dD(SAO)]  TOL
   8  -197.57368743205    -659.12551931     262.19149613    0.000D+00 0.427D-11
                            Exc = -31.3664020954     Coul =  293.557898221    
                              N = 42.000103547    
                            current damping = 0.650
 
          Norm of current diis error: 0.69578E-02
          max. resid. norm for Fia-block=  2.783D-04 for orbital      6a         
          max. resid. fock norm         =  3.076D-04 for orbital      6a         

 ITERATION  ENERGY          1e-ENERGY        2e-ENERGY     NORM[dD(SAO)]  TOL
   9  -197.57368863483    -659.13347188     262.19944749    0.000D+00 0.427D-11
                            Exc = -31.3673930338     Coul =  293.566840528    
                              N = 42.000103589    
                            current damping = 0.500
 
          Norm of current diis error: 0.25131E-02
          max. resid. norm for Fia-block=  1.009D-04 for orbital      6a         
          max. resid. fock norm         =  1.151D-04 for orbital     52a         

 ITERATION  ENERGY          1e-ENERGY        2e-ENERGY     NORM[dD(SAO)]  TOL
  10  -197.57368879857    -659.13296465     262.19894010    0.000D+00 0.427D-11
                            Exc = -31.3674573395     Coul =  293.566397439    
                              N = 42.000103603    
                            current damping = 0.550
 
          Norm of current diis error: 0.92404E-03
          max. resid. norm for Fia-block=  4.095D-05 for orbital      6a         
          max. resid. fock norm         =  5.199D-05 for orbital    641a         
          mo-orthogonalization: Cholesky decomposition

 ENERGY CONVERGED !

          Overall gridpoints after grid construction =        149382

 ITERATION  ENERGY          1e-ENERGY        2e-ENERGY     NORM[dD(SAO)]  TOL
  11  -197.57357679845    -659.13330710     262.19939456    0.000D+00 0.427D-11
                            Exc = -31.3674403551     Coul =  293.566834912    
                              N = 42.000050931    
                            current damping = 0.600
 
          Norm of current diis error: 0.38052E-03
          max. resid. norm for Fia-block=  1.338D-05 for orbital     10a         
          max. resid. fock norm         =  1.467D-05 for orbital     10a         

 End of SCF iterations

   convergence criteria satisfied after    11 iterations


                  ------------------------------------------ 
                 |  total energy      =   -197.57357679845  |
                  ------------------------------------------ 
                 :  kinetic energy    =    196.67862886689  :
                 :  potential energy  =   -394.25220566534  :
                 :  virial theorem    =      1.99547030556  :
                 :  wavefunction norm =      1.00000000000  :
                  .......................................... 


 <geterg> : there is no data group $energy 


 <skperg> : $end is missing 


 orbitals $scfmo  will be written to file mos

    irrep                 17a         18a         19a         20a         21a   
 eigenvalues H         -0.31793    -0.31756    -0.28126    -0.28055    -0.28049
            eV          -8.6514     -8.6414     -7.6536     -7.6343     -7.6326
 occupation              2.0000      2.0000      2.0000      2.0000      2.0000 

    irrep                 22a         23a         24a         25a         26a   
 eigenvalues H         -0.00489     0.03968     0.03980     0.03982     0.05099
            eV          -0.1332      1.0797      1.0830      1.0836      1.3876
 
 
 
 
 ==============================================================================
                           electrostatic moments
 ==============================================================================

 reference point for electrostatic moments:    0.00000   0.00000   0.00000

 
              nuc           elec       ->  total
 ------------------------------------------------------------------------------
                          charge      
 ------------------------------------------------------------------------------
          42.000000     -42.000000       0.000000
 
 ------------------------------------------------------------------------------
                       dipole moment  
 ------------------------------------------------------------------------------
   x      13.540148     -13.540398      -0.000250
   y      40.194647     -40.195642      -0.000995
   z     383.615197    -383.614210       0.000987
 
   | dipole moment | =     0.0014 a.u. =     0.0036 debye 
 
 ------------------------------------------------------------------------------
                     quadrupole moment
 ------------------------------------------------------------------------------
  xx     138.024553    -164.731998     -26.707445
  yy     172.103367    -198.807942     -26.704575
  zz    3637.816821   -3664.486151     -26.669330
  xy      12.947201     -12.946597       0.000604
  xz     123.725124    -123.720852       0.004272
  yz     367.270906    -367.264096       0.006811
 
     1/3  trace=     -26.693783
     anisotropy=       0.039327
 
 ==============================================================================
 


    ------------------------------------------------------------------------
         total  cpu-time :  1 minutes and 54 seconds
         total wall-time :  26.21 seconds
    ------------------------------------------------------------------------

   ****  ridft : all done  ****


    2019-03-12 12:15:28.147 

