Using Slurm to start processes with PMI2
STARTING ridft ON 8 PROCESSORS!
RUNNING PROGRAM /beegfs/modfac/apps/TURBOMOLE/7.0_intel_GA/bin/em64t-unknown-linux-gnu_mpi/ridft_mpi.
PLEASE WAIT UNTIL ridft HAS FINISHED.
Look for the output in slave1.output.
  this is node-proc. number 1 running on node c-7-21.local
  the total number of node-proc. spawned is            8
  parallel platform: MPP, or cluster with fast interconnect

 ridft (c-7-21.local) : TURBOMOLE V7.0.2( ) 15 Jan 2016 at 17:47:42
 Copyright (C) 2016 TURBOMOLE GmbH, Karlsruhe


    2018-01-24 11:10:21.231 



                                  r i d f t

                        DFT program with RI approximation 
                                for coulomb part 




                                                 
                                 References:     
                                                 
          TURBOMOLE:                             
              R. Ahlrichs, M. Baer, M. Haeser, H. Horn, and
              C. Koelmel
              Electronic structure calculations on workstation
              computers: the program system TURBOMOLE
              Chem. Phys. Lett. 162: 165 (1989)
          Density Functional:                              
              O. Treutler and R. Ahlrichs                      
              Efficient Molecular Numerical Integration Schemes
              J. Chem. Phys. 102: 346 (1995)                   
          Parallel Version:                                
              Performance of parallel TURBOMOLE for Density    
              Functional Calculations                          
              M. v. Arnim and R. Ahlrichs                      
              J. Comp. Chem. 19: 1746 (1998)                   
          RI-J Method:                                     
              Auxiliary Basis Sets to approximate Coulomb      
              Potentials                                       
              Chem. Phys. Lett. 240: 283 (1995)                
              K. Eichkorn, O. Treutler, H. Oehm, M. Haeser     
              and R. Ahlrichs                                  
              Chem. Phys. Lett. 242: 652 (1995)                
                                                           
              Auxiliary Basis Sets for Main Row Atoms and their
              Use to approximate Coulomb Potentials            
              K. Eichkorn, F. Weigend, O. Treutler and         
              R. Ahlrichs                                      
              Theo. Chem. Acc. 97: 119 (1997)                   
                                                           
              Accurate Coulomb-fitting basis sets for H to Rn 
              F. Weigend                                        
              Phys. Chem. Chem. Phys. 8: 1057 (2006)            
                                                           
          Multipole accelerated RI-J (MARI-J):             
              Fast evaluation of the Coulomb potential for     
              electron densities using multipole accelerated   
              resolution of identity approximation             
              M. Sierka, A. Hogekamp and R. Ahlrichs           
              J. Chem. Phys. 118: 9136 (2003)                  
          RI-JK Method:                                     
              A fully direct RI-HF algorithm: Implementation,
              optimised auxiliary basis sets, demonstration of
              accuracy and efficiency                         
              F. Weigend                                      
              Phys. Chem. Chem. Phys. 4: 4285 (2002)           
          Two-component HF and DFT with spin-orbit coupling:  
              Self-consistent treatment of spin-orbit         
              interactions with efficient Hartree-Fock and    
              density functional methods                      
              M. K. Armbruster, F. Weigend, C. van Wüllen and 
              W. Klopper                                      
              Phys. Chem. Chem. Phys. 10: 1748 (2008)         
          Relativistic all-electron 2c calculations           
              An efficient implementation of two-component    
              relativistic exact-decoupling methods for large 
              molecules                                       
              D. Peng, N. Middendorf, F. Weigend, M. Reiher   
              J. Chem. Phys. 138, 184105 (2013)               
                                         


 


              +--------------------------------------------------+
              |      general information about current run       |
              +--------------------------------------------------+

 

 SCF run will be profiled !


 DENSITY CONVERGENCE CHECK SWITCHED ON !
 SCF CONVERGENCE IF RMS(delta[D]) <     0.1000000000E-06

 TPSS meta-GGA functional
 exchange:    LDA + TPSS
 correlation: LDA (PW) + TPSS
 A DFT calculation using the RI-J approximation will be carried out.
 Allocatable memory for RI due to $ricore (MB):       18000


              +--------------------------------------------------+
              | Atomic coordinate, charge and isotop information |
              +--------------------------------------------------+

                    atomic coordinates            atom    charge  isotop
          1.29102896    2.23612775    5.35940406    c      6.000     0
          2.68444732    0.00000000    5.34775669    c      6.000     0
          1.29102896   -2.23612775    5.35940406    c      6.000     0
         -1.34222366   -2.32479958    5.34775669    c      6.000     0
         -2.58205792    0.00000000    5.35940406    c      6.000     0
         -1.34222366    2.32479958    5.34775669    c      6.000     0
         -2.74209098    4.74944089    5.17369628    c      6.000     0
         -3.47165961    6.01309083    7.36565771    c      6.000     0
         -4.78742225    8.29205857    7.27396970    c      6.000     0
         -5.38971831    9.33526596    4.93546263    c      6.000     0
         -4.67190964    8.09198487    2.72597715    c      6.000     0
         -3.35880377    5.81761878    2.81855316    c      6.000     0
         -2.74209098   -4.74944089    5.17369628    c      6.000     0
         -3.35880377   -5.81761878    2.81855316    c      6.000     0
         -4.67190964   -8.09198487    2.72597715    c      6.000     0
         -5.38971831   -9.33526596    4.93546263    c      6.000     0
         -4.78742225   -8.29205857    7.27396970    c      6.000     0
         -3.47165961   -6.01309083    7.36565771    c      6.000     0
          5.48418196    0.00000000    5.17369628    c      6.000     0
          6.71760754    0.00000000    2.81855316    c      6.000     0
          9.34381929    0.00000000    2.72597715    c      6.000     0
         10.77943663    0.00000000    4.93546263    c      6.000     0
          9.57484449    0.00000000    7.27396970    c      6.000     0
          6.94331922    0.00000000    7.36565771    c      6.000     0
          2.56458096    4.44198451    5.30703898    f      9.000     0
         -5.12916191    0.00000000    5.30703898    f      9.000     0
          2.56458096   -4.44198451    5.30703898    f      9.000     0
         -2.90994879    5.04017915    9.65013893    f      9.000     0
         -5.47160393    9.47709601    9.40663768    f      9.000     0
         -6.65606662   11.52864556    4.82298142    f      9.000     0
         -5.29334333    9.16833958    0.50315811    f      9.000     0
         -5.29334333   -9.16833958    0.50315811    f      9.000     0
         -6.65606662  -11.52864556    4.82298142    f      9.000     0
         -5.47160393   -9.47709601    9.40663768    f      9.000     0
         -2.90994879   -5.04017915    9.65013893    f      9.000     0
         10.58668665    0.00000000    0.50315811    f      9.000     0
         13.31213324    0.00000000    4.82298142    f      9.000     0
         10.94320787    0.00000000    9.40663768    f      9.000     0
          5.81989758    0.00000000    9.65013893    f      9.000     0
         -2.31430977    4.00850211   -0.59311698    i     53.000     0
         -2.31430977   -4.00850211   -0.59311698    i     53.000     0
          4.62861954    0.00000000   -0.59311698    i     53.000     0
          3.99736087   -2.26207693   -6.71003915    c      0.000     0
          5.92734477   -2.13882400   -5.97866723    h      0.000     0
          4.10220135   -2.23748546   -8.79875309    h      0.000     0
          2.68582355   -4.65198285   -5.81886616    c      0.000     0
          3.64577576   -6.31466884   -6.59083899    h      0.000     0
          2.75180702   -4.76626957   -3.75428211    h      0.000     0
         -0.03966435   -4.59285453   -6.71003915    c      0.000     0
         -0.11338143   -4.67135331   -8.79875309    h      0.000     0
         -1.11139647   -6.20264315   -5.97866723    h      0.000     0
         -3.95769652   -2.33077759   -6.71003915    c      0.000     0
         -4.81594831   -4.06381915   -5.97866723    h      0.000     0
         -3.98881992   -2.43386785   -8.79875309    h      0.000     0
         -5.37164710    0.00000000   -5.81886616    c      0.000     0
         -5.50361403    0.00000000   -3.75428211    h      0.000     0
         -7.29155151    0.00000000   -6.59083899    h      0.000     0
         -3.95769652    2.33077759   -6.71003915    c      0.000     0
         -3.98881992    2.43386785   -8.79875309    h      0.000     0
         -4.81594831    4.06381915   -5.97866723    h      0.000     0
         -0.03966435    4.59285453   -6.71003915    c      0.000     0
         -1.11139647    6.20264315   -5.97866723    h      0.000     0
         -0.11338143    4.67135331   -8.79875309    h      0.000     0
          2.68582355    4.65198285   -5.81886616    c      0.000     0
          3.64577576    6.31466884   -6.59083899    h      0.000     0
          2.75180702    4.76626957   -3.75428211    h      0.000     0
          3.99736087    2.26207693   -6.71003915    c      0.000     0
          4.10220135    2.23748546   -8.79875309    h      0.000     0
          5.92734477    2.13882400   -5.97866723    h      0.000     0
          0.00000000    0.00000000   -6.67566966    c      0.000     0
          0.00000000    0.00000000   -8.80405438    h      0.000     0
          2.63800737    0.00000000   -5.79850129    n      0.000     0
         -1.31900368   -2.28458139   -5.79850129    n      0.000     0
         -1.31900368    2.28458139   -5.79850129    n      0.000     0
 
       center of nuclear mass  :   -0.00000000   -0.00000000    1.58306549
       center of nuclear charge:   -0.00000000   -0.00000000    3.29984425

              +--------------------------------------------------+
              |               basis set information              |
              +--------------------------------------------------+

              we will work with the 1s 3p 5d 7f 9g ... basis set
              ...i.e. with spherical basis functions...

   type   atoms  prim   cont   basis
   ---------------------------------------------------------------------------
    c       34     50     30   cc-pVTZ   [4s3p2d1f|18s5p2d1f]
    f       15     50     30   cc-pVTZ   [4s3p2d1f|18s5p2d1f]
    i        3    133     39   cc-pVTZ-PP   [5s4p3d1f|21s20p9d1f]
    h       19     16     14   cc-pVTZ   [3s2p1d|5s2p1d]
    n        3     50     30   cc-pVTZ   [4s3p2d1f|18s5p2d1f]
   ---------------------------------------------------------------------------
   total:   74   3303   1943
   ---------------------------------------------------------------------------

   total number of primitive shells          :  137
   total number of contracted shells         :  673
   total number of cartesian basis functions : 2240
   total number of SCF-basis functions       : 1943


 integral neglect threshold       :  0.15E-13
 integral storage threshold THIZE :  0.10E-04
 integral storage threshold THIME :         5

 number of unique ecp types :           1
 RI-J AUXILIARY BASIS SET information:

              we will work with the 1s 3p 5d 7f 9g ... basis set
              ...i.e. with spherical basis functions...

   type   atoms  prim   cont   basis
   ---------------------------------------------------------------------------
    c       34     70     49   cc-pVTZ   [6s4p3d1f1g|12s5p4d2f1g]
    f       15     70     49   cc-pVTZ   [6s4p3d1f1g|12s5p4d2f1g]
    i        3    160    140   universal_jkbas   [11s10p10d7f|13s12p11d8f]
    h       19     16     11   cc-pVTZ   [3s1p1d|5s2p1d]
    n        3     70     49   cc-pVTZ   [6s4p3d1f1g|12s5p4d2f1g]
   ---------------------------------------------------------------------------
   total:   74   4424   3177
   ---------------------------------------------------------------------------

   total number of primitive shells          :  124
   total number of contracted shells         :  989
   total number of cartesian basis functions : 3913
   total number of SCF-basis functions       : 3177


 symmetry group of the molecule :   c1 

 the group has the following generators :
   c1(z)

    1 symmetry operations found

 there are 1 real representations :   a   

 maximum number of shells which are related by symmetry :  1


    mo occupation :
   irrep   mo's   occupied
    a     1943      177
 
 number of basis functions   :         1943
 number of occupied orbitals :          177
 
  
           ------------------
           density functional
           ------------------
 Dummy atoms with grid-point found.
 DFT quadrature threshold dgrenze tightened by factor 1/10.

 TPSS meta-GGA functional
 exchange:    LDA + TPSS
 correlation: LDA (PW) + TPSS
 Dummy atoms with grid-point found.
 DFT quadrature threshold dgrenze tightened by factor 1/10.

 Dummy atoms with grid-point found.
 DFT quadrature threshold dgrenze tightened by factor 1/10.

 grinp -> nfun, dfgga, dfhybrid 
           5 F F
 iterations will be done with small grid
  
 spherical integration : Lebedev's spherical grid
 spherical gridsize    :           5
    i.e. gridpoints    :         590
 value for diffuse not defined
 radial integration    : Chebyshev 2nd kind (scaling 3)
 radial gridsize       :           8
 integration cells     :          74
 partition function    : becke
 partition sharpness   :           3
  
 found dummy atom(s) with basis: included in dft

 <rddim> : input of entry tasksize
           from data group '$pardft' failed !

               Default values taken

 <rddim> : input of entry memdiv
           from data group '$pardft' failed !

               Default values taken
  RIDFT: memory allocation for DFT gridpoints
  MEMORY is divided by 1 as DEFAULT
 Each node can hold at most  the            1 -th part
 of the gridpoints    

 biggest AO integral is expected to be     5.499692413
  
           ------------------------
               RI-J - INFORMATION
           ------------------------
 
 
 **************************************************
 *      MEMORY ALLOCATION FOR PARALLEL RI-DFT     *
 **************************************************
 
 
MEMORY FOR (MU NU/ ALPHA), SEQUENTIAL RUN              17920 MByte
 
            DIFFERENCE IN MEMORY NEED:       DIAG./SLAVE  
 
      TOTAL DIFFERENCE :                    231 MByte
 
      difference in xcore:                   81 MByte
      difference in fatmat:                  55 MByte
      getcor calls skipped by slaves:        96 MByte
 
 
           Integral memory available for diagonal.     17920 MByte
 
           Integral memory available for slave             0 MByte
 
         MEMORY FOR (MU NU/ ALPHA) ON DIAGONALIZER     17920 MByte
 
         MEMORY FOR (MU NU/ ALPHA) ON ONE SLAVE            0 MByte
 
         TOTAL MEMORY FOR (MU NU/ ALPHA),ALL NODES     17920 MByte
 
 Contributions to RI integral batches: 
  neglected integral batches:      128484
  direct contribution:              28832
  memory contribution:       69485
 Memory core needed for (P|Q) and Cholesky     78 MByte
 Memory core minimum needed except of (P|Q)     7 MByte
 Total minimum memory core needed (sum)        84 MByte
     number of direct tasks:         160
  
 ****************************************
 Memory allocated for RI-J 18004 MByte
 ****************************************
                                            

          ------------------------
          nuclear repulsion energy  :   6675.49755796    
          ------------------------

 
          -----------------
          -S integrals
          -----------------

 1e-integrals will be neglected if expon. factor < 0.149195E-14
 
          -----------------
          -T+V integrals
          -----------------

 1e-integrals will be neglected if expon. factor < 0.149195E-14
 
           ----------------
           -ecp-  integrals
           ----------------
 Difference densities >>NOT<< switched on in parallel ridft!

 automatic virtual orbital shift switched on 
      shift if e(lumo)-e(homo) < 0.10000000    


 DIIS switched on: error vector is FDS-SDF
 Max. Iterations for DIIS is     :   4
 DIIS matrix (see manual) 
    Scaling factor of diagonals  :  1.200
    threshold for scaling factor :  0.000

 scf convergence criterion : increment of total energy < .1000000D-08
                  and increment of one-electron energy < .1000000D-05

  MOs are in ASCII format !


 reading orbital data $scfmo  from file mos . 

 orbital characterization : scfconv=9
 

 DSCF restart information will be dumped onto file mos


 Starting SCF iterations


 ITERATION  ENERGY          1e-ENERGY        2e-ENERGY     RMS[dD(SAO)]   TOL
   1  -3300.0038046930    -18183.115629     8207.6142667    0.000D+00 0.149D-13
                            Exc = -353.464905113     Coul =  8561.07917178    
                              N = 353.99967285    
                            current damping = 0.700
 
          max. resid. norm for Fia-block=  5.818D-04 for orbital     41a         
          max. resid. fock norm         =  8.450D-04 for orbital     54a         

 ITERATION  ENERGY          1e-ENERGY        2e-ENERGY     RMS[dD(SAO)]   TOL
   2  -3300.0038068143    -18183.117457     8207.6160919    0.786D-05 0.149D-13
                            Exc = -353.464817467     Coul =  8561.08090939    
                              N = 353.99967296    
                            current damping = 0.650
 
          Norm of current diis error: 0.14010E-02
          max. resid. norm for Fia-block=  2.383D-04 for orbital     41a         
          max. resid. fock norm         =  3.772D-04 for orbital     54a         

 ITERATION  ENERGY          1e-ENERGY        2e-ENERGY     RMS[dD(SAO)]   TOL
   3  -3300.0038071778    -18183.114856     8207.6134912    0.353D-05 0.149D-13
                            Exc = -353.464709440     Coul =  8561.07820062    
                              N = 353.99967293    
                            current damping = 0.600
 
          Norm of current diis error: 0.66840E-03
          max. resid. norm for Fia-block=  1.010D-04 for orbital     54a         
          max. resid. fock norm         =  1.400D-04 for orbital     54a         

 ITERATION  ENERGY          1e-ENERGY        2e-ENERGY     RMS[dD(SAO)]   TOL
   4  -3300.0038072385    -18183.118228     8207.6168630    0.145D-05 0.149D-13
                            Exc = -353.464710931     Coul =  8561.08157391    
                              N = 353.99967299    
                            current damping = 0.650
 
          Norm of current diis error: 0.53786E-03
          max. resid. norm for Fia-block=  3.544D-05 for orbital     54a         
          max. resid. fock norm         =  5.449D-05 for orbital     54a         

 ITERATION  ENERGY          1e-ENERGY        2e-ENERGY     RMS[dD(SAO)]   TOL
   5  -3300.0038072595    -18183.116716     8207.6153504    0.548D-06 0.149D-13
                            Exc = -353.464748037     Coul =  8561.08009840    
                              N = 353.99967299    
                            current damping = 0.700
 
          Norm of current diis error: 0.13466E-03
          max. resid. norm for Fia-block=  1.386D-05 for orbital     54a         
          max. resid. fock norm         =  2.319D-05 for orbital     54a         
          mo-orthogonalization: Cholesky decomposition

 ITERATION  ENERGY          1e-ENERGY        2e-ENERGY     RMS[dD(SAO)]   TOL
   6  -3300.0038072615    -18183.116719     8207.6153533    0.228D-06 0.149D-13
                            Exc = -353.464703598     Coul =  8561.08005693    
                              N = 353.99967298    
                            current damping = 0.750
 
          Norm of current diis error: 0.61602E-04
          max. resid. norm for Fia-block=  6.179D-06 for orbital     54a         
          max. resid. fock norm         =  9.282D-06 for orbital     54a         

 DENSITY CONVERGED !


 ITERATION  ENERGY          1e-ENERGY        2e-ENERGY     RMS[dD(SAO)]   TOL
   7  -3300.0038072619    -18183.116417     8207.6150515    0.877D-07 0.149D-13
                            Exc = -353.464707082     Coul =  8561.07975855    
                              N = 353.99967298    
                            current damping = 0.800
 
          Norm of current diis error: 0.26826E-04
          max. resid. norm for Fia-block=  2.748D-06 for orbital     54a         
          max. resid. fock norm         =  3.547D-06 for orbital     54a         

 DENSITY CONVERGED !


 ITERATION  ENERGY          1e-ENERGY        2e-ENERGY     RMS[dD(SAO)]   TOL
   8  -3300.0038072620    -18183.116599     8207.6152339    0.363D-07 0.149D-13
                            Exc = -353.464713165     Coul =  8561.07994706    
                              N = 353.99967298    
                            current damping = 0.850
 
          Norm of current diis error: 0.13236E-04
          max. resid. norm for Fia-block=  1.131D-06 for orbital     54a         
          max. resid. fock norm         =  1.702D-06 for orbital     54a         

 DENSITY CONVERGED !


 ITERATION  ENERGY          1e-ENERGY        2e-ENERGY     RMS[dD(SAO)]   TOL
   9  -3300.0038072621    -18183.116554     8207.6151884    0.169D-07 0.149D-13
                            Exc = -353.464712477     Coul =  8561.07990087    
                              N = 353.99967298    
                            current damping = 0.900
 
          Norm of current diis error: 0.62380E-05
          max. resid. norm for Fia-block=  5.386D-07 for orbital     54a         
          max. resid. fock norm         =  8.781D-07 for orbital     54a         

 ENERGY & DENSITY CONVERGED !


 ITERATION  ENERGY          1e-ENERGY        2e-ENERGY     RMS[dD(SAO)]   TOL
  10  -3300.0034909918    -18183.116560     8207.6155110    0.783D-08 0.149D-13
                            Exc = -353.464393841     Coul =  8561.07990484    
                              N = 353.99998740    
                            current damping = 0.950
 
          Norm of current diis error: 0.27895E-05
          max. resid. norm for Fia-block=  2.811D-07 for orbital     54a         
          max. resid. fock norm         =  3.943D-07 for orbital     54a         

 End of SCF iterations

   convergence criteria satisfied after   10 iterations


                  ------------------------------------------ 
                 |  total energy      =  -3300.00349099180  |
                  ------------------------------------------ 
                 :  kinetic energy    =   2732.96673368533  :
                 :  potential energy  =  -6032.97022467713  :
                 :  virial theorem    =      1.82817086138  :
                 :  wavefunction norm =      1.00000000000  :
                  .......................................... 


 orbitals $scfmo  will be written to file mos

    irrep                173a        174a        175a        176a        177a   
 eigenvalues H         -0.24669    -0.24669    -0.23899    -0.23899    -0.23304
            eV          -6.7128     -6.7127     -6.5033     -6.5032     -6.3414
 occupation              2.0000      2.0000      2.0000      2.0000      2.0000 

    irrep                178a        179a        180a        181a        182a   
 eigenvalues H         -0.11248    -0.09225    -0.09225    -0.08334    -0.08334
            eV          -3.0607     -2.5102     -2.5102     -2.2679     -2.2679
 
 
 ! grave: sending quit signal to master process
 
 
 
 
 ==============================================================================
                           electrostatic moments
 ==============================================================================

 reference point for electrostatic moments:    0.00000   0.00000   0.00000

 
              nuc           elec       ->  total
 ------------------------------------------------------------------------------
                          charge      
 ------------------------------------------------------------------------------
         354.000000    -354.000000      -0.000000
 
 ------------------------------------------------------------------------------
                       dipole moment  
 ------------------------------------------------------------------------------
   x      -0.000000      -0.000156      -0.000156
   y       0.000000      -0.000000      -0.000000
   z    1495.153607   -1495.577035      -0.423428
 
   | dipole moment | =     0.4234 a.u. =     1.0762 debye 
 
 ------------------------------------------------------------------------------
                     quadrupole moment
 ------------------------------------------------------------------------------
  xx   11030.127188  -11250.418088    -220.290900
  yy   11030.127188  -11250.415657    -220.288470
  zz   10482.941770  -10702.742998    -219.801228
  xy      -0.000000       0.000000       0.000000
  xz      -0.000000       0.000982       0.000982
  yz       0.000000      -0.000000      -0.000000
 
     1/3  trace=    -220.126866
     anisotropy=       0.488464
 
 ==============================================================================
 

    ridft profiling
  --------------------------------------------------------------------
             module   cpu total (s)       %  wall total (s)       %

               RIDFT          1564.3  100.00          1566.4  100.00
         Ridft_b_scf           112.1    7.17           112.8    7.20
        b_scf_prelim             0.0    0.00             0.0    0.00
        b_scf_molinp             0.0    0.00             0.0    0.00
         b_scf_init0             0.0    0.00             0.0    0.00
        b_scf_auxbas             0.0    0.00             0.0    0.00
      b_scf_symmetry             0.0    0.00             0.0    0.00
         b_scf_cosmo             0.0    0.00             0.0    0.00
        b_scf_params             2.5    0.16             2.5    0.16
          b_scf_ri-j            94.1    6.01            94.0    6.00
    b_scf_ri-j_auxpq            94.0    6.01            94.0    6.00
     ri-j_auxpq_chol             4.5    0.29             4.5    0.29
         b_scf_1elec             2.6    0.16             2.6    0.17
       b_scf_moinput            12.9    0.83            13.6    0.87
     moinput_orthmos             8.5    0.54             8.5    0.54
    b_scf_dft-dstmax             0.0    0.00             0.0    0.00
           Ridft_scf          1451.2   92.77          1452.6   92.73
          Scf_b_loop             0.0    0.00             0.0    0.00
                noga             0.0    0.00             0.0    0.00
            Scf_loop          1448.6   92.60          1449.7   92.55
     scf_loop_mkdmat             4.1    0.26             4.4    0.28
       scf_loop_ri-j            91.4    5.84            92.4    5.90
      parlp1.bc.dens             0.7    0.04             0.7    0.04
        parlp1.gs.gp            17.3    1.10            17.3    1.10
        parlp2.bc.gq             0.0    0.00             0.0    0.00
        scf_loop_dft          1239.1   79.21          1238.2   79.05
      pardft.bc.dens             0.0    0.00             0.0    0.00
        dft_grid_con            11.9    0.76            11.9    0.76
          dft_xcmrhf          1217.2   77.81          1216.3   77.65
          dft_getval            22.9    1.47            22.9    1.46
          funct2 dst             0.4    0.03             0.4    0.03
      funct2 f2loop1             4.3    0.28             4.4    0.28
      funct2 f2loop2            11.6    0.74            11.7    0.74
          funct2 s+c             6.0    0.38             5.9    0.38
        funct2 cmf_2             5.2    0.34             5.2    0.33
          dft_mkdens           712.1   45.52           711.6   45.43
        dft_mgga-fun             0.9    0.06             1.0    0.06
          dft_mkfock           480.7   30.73           480.3   30.66
     pardft.red.fock           175.2   11.20           175.1   11.18
     scf_loop_energy             0.0    0.00             0.2    0.01
     scf_loop_mkfock             0.0    0.00             0.0    0.00
       scf_loop_diis            56.3    3.60            56.7    3.62
       scf_loop_diag            30.7    1.96            30.8    1.97
         diag_tritrn            10.3    0.66            10.3    0.66
          diag_rdiag            20.3    1.30            20.3    1.30
     scf_loop_modump            21.1    1.35            21.1    1.35
      scf_loop_ortho             5.1    0.33             5.1    0.33
          Scf_a_loop             2.6    0.17             2.8    0.18
         Ridft_a_scf             1.0    0.06             1.0    0.06
         a_scf_fanal             0.7    0.04             0.7    0.04
 


    ------------------------------------------------------------------------
         total  cpu-time : 26 minutes and  8 seconds
         total wall-time : 26 minutes and 10 seconds
    ------------------------------------------------------------------------


   ****  ridft : all done  ****


    2018-01-24 11:36:30.896 

