
   OpenMP run-time library returned nthreads = 28
 operating system is UNIX !

 dscf (c-13-32) : TURBOMOLE V7.3 ( 22142 ) 4 Jul 2018 at 18:12:42
 Copyright (C) 2018 TURBOMOLE GmbH, Karlsruhe


    2019-04-01 23:56:42.007 



                             d s c f - program

                   idea & directorship : reinhart ahlrichs
                   program development : marco haeser
                                         michael baer
                           dft version : oliver treutler


                          quantum chemistry group
                          universitaet  karlsruhe
                                  germany




                          References             
                                                 
          TURBOMOLE:                             
              R. Ahlrichs, M. Baer, M. Haeser, H. Horn, and
              C. Koelmel
              Electronic structure calculations on workstation
              computers: the program system TURBOMOLE
              Chem. Phys. Lett. 162: 165 (1989)
          Density Functional:                              
              O. Treutler and R. Ahlrichs                      
              Efficient Molecular Numerical Integration Schemes
              J. Chem. Phys. 102: 346 (1995)                   
          Parallel Version:                                
              Performance of parallel TURBOMOLE for Density    
              Functional Calculations                          
              M. v. Arnim and R. Ahlrichs                      
              J. Comp. Chem. 19: 1746 (1998)                   
                                         




              +--------------------------------------------------+
              | Atomic coordinate, charge and isotop information |
              +--------------------------------------------------+

                    atomic coordinates            atom    charge  isotop
         -0.15690867    0.00135038    1.99403899    n      7.000     0
         -0.38333806   -2.15754918    0.68962473    c      6.000     0
         -0.18611086   -3.88357231    1.77149093    h      1.000     0
         -0.84429456   -2.25210695   -1.89825307    c      6.000     0
         -1.00845085   -4.05507848   -2.84247229    h      1.000     0
         -1.08599176    0.00649978   -3.22067816    c      6.000     0
         -1.44315344    0.00846617   -5.23213520    h      1.000     0
         -0.85690908    2.26246052   -1.89145802    c      6.000     0
         -1.03109278    4.06720586   -2.83042251    h      1.000     0
         -0.39554067    2.16280590    0.69611331    c      6.000     0
         -0.20818559    3.88659456    1.78309637    h      1.000     0
          0.89164086   -0.01144831   10.47233114    c      0.000     0
          1.10973424   -0.01036325   12.46601833    h      0.000     0
          0.64206518   -0.01248716    8.19285409    c      0.000     0
          0.41879760   -0.01199125    6.18123028    h      0.000     0
 
       center of nuclear mass  :   -0.27559331   -0.00001654    1.86368224
       center of nuclear charge:   -0.62789997    0.00394593   -0.64619231

              +--------------------------------------------------+
              |               basis set information              |
              +--------------------------------------------------+

              we will work with the 1s 3p 5d 7f 9g ... basis set
              ...i.e. with spherical basis functions...

   type   atoms  prim   cont   basis
   ---------------------------------------------------------------------------
    n        1     50     30   cc-pVTZ   [4s3p2d1f|18s5p2d1f]
    c        7     50     30   cc-pVTZ   [4s3p2d1f|18s5p2d1f]
    h        7     16     14   cc-pVTZ   [3s2p1d|5s2p1d]
   ---------------------------------------------------------------------------
   total:   15    512    338
   ---------------------------------------------------------------------------

   total number of primitive shells          :   60
   total number of contracted shells         :  122
   total number of cartesian basis functions :  385
   total number of SCF-basis functions       :  338


 integral neglect threshold       :  0.87E-13
 integral storage threshold THIZE :  0.10E-04
 integral storage threshold THIME :         5


 DENSITY CONVERGENCE CHECK SWITCHED ON !
 SCF CONVERGENCE IF RMS(delta[D]) <     0.1000000000E-06


 symmetry group of the molecule :   c1 

 the group has the following generators :
   c1(z)

    1 symmetry operations found

 there are 1 real representations :   a   

 maximum number of shells which are related by symmetry :  1


    mo occupation :
   irrep   mo's   occupied
    a      338       21
 
 number of basis functions   :                    338
 number of occupied orbitals :                     21
 

 automatic virtual orbital shift switched on 
      shift if e(lumo)-e(homo) < 0.10000000    


          ------------------------
          nuclear repulsion energy  :   206.266071321    
          ------------------------


         -----------------
         -S,T+V- integrals
         -----------------

 1e-integrals will be neglected if expon. factor < 0.868042E-14
 
   Difference densities algorithm switched on.
   The maximal number of linear combinations of
   difference densities is                    20 .

 DIIS switched on: error vector is FDS-SDF
 Max. Iterations for DIIS is     :   5
 DIIS matrix (see manual) 
    Scaling factor of diagonals  :  1.200
    threshold for scaling factor :  0.000

 scf convergence criterion : increment of total energy < .1000000D-08
                  and increment of one-electron energy < .1000000D-05

  MOs are in ASCII format !


 reading orbital data $scfmo  from file mos
 orbital characterization : scfconv=9

 DSCF restart information will be dumped onto file mos

 
                                              current damping :  0.700
 ITERATION  ENERGY          1e-ENERGY        2e-ENERGY     RMS[dD(SAO)]   TOL
   1  -246.72510103916    -742.23541699     289.24424463    0.000D+00 0.866D-13
          max. resid. norm for Fia-block=  9.316D-02 for orbital      1a         
          max. resid. fock norm         =  2.356D-01 for orbital    314a         
          Delta Eig. =    24.7554752608 eV 
 
                                              current damping :  0.650
 ITERATION  ENERGY          1e-ENERGY        2e-ENERGY     RMS[dD(SAO)]   TOL
   2  -246.76648816380    -741.37742061     288.34486112    0.987D-03 0.551D-13
          Norm of current diis error: 0.42035    
          max. resid. norm for Fia-block=  4.441D-02 for orbital      1a         
          max. resid. fock norm         =  9.130D-02 for orbital    292a         
          Delta Eig. =    11.1011306257 eV 
 
                                              current damping :  0.600
 ITERATION  ENERGY          1e-ENERGY        2e-ENERGY     RMS[dD(SAO)]   TOL
   3  -246.77478138533    -741.45905631     288.41820360    0.535D-03 0.413D-13
          Norm of current diis error: 0.18675    
          max. resid. norm for Fia-block=  1.886D-02 for orbital      1a         
          max. resid. fock norm         =  3.735D-02 for orbital    264a         
          Delta Eig. =     4.5151401136 eV 
 
                                              current damping :  0.650
 ITERATION  ENERGY          1e-ENERGY        2e-ENERGY     RMS[dD(SAO)]   TOL
   4  -246.77654088239    -741.39462724     288.35201504    0.256D-03 0.359D-13
          Norm of current diis error: 0.76240E-01
          max. resid. norm for Fia-block=  6.796D-03 for orbital      1a         
          max. resid. fock norm         =  1.460D-02 for orbital    301a         
          Delta Eig. =     1.5547627894 eV 
 
                                              current damping :  0.500
 ITERATION  ENERGY          1e-ENERGY        2e-ENERGY     RMS[dD(SAO)]   TOL
   5  -246.77684261785    -741.37844013     288.33552619    0.103D-03 0.333D-13
          Norm of current diis error: 0.32798E-01
          max. resid. norm for Fia-block=  2.821D-03 for orbital     13a         
          max. resid. fock norm         =  5.835D-03 for orbital    254a         
 mo-orthogonalization: Cholesky decomposition
          Delta Eig. =     0.6985595020 eV 
 
                                              current damping :  0.350
 ITERATION  ENERGY          1e-ENERGY        2e-ENERGY     RMS[dD(SAO)]   TOL
   6  -246.77690715969    -741.37239690     288.32941842    0.517D-04 0.312D-13
          Norm of current diis error: 0.12954E-01
          max. resid. norm for Fia-block=  1.192D-03 for orbital     21a         
          max. resid. fock norm         =  1.943D-03 for orbital    259a         
          Delta Eig. =     0.2430798276 eV 
 
                                              current damping :  0.200
 ITERATION  ENERGY          1e-ENERGY        2e-ENERGY     RMS[dD(SAO)]   TOL
   7  -246.77692035844    -741.36937523     288.32638355    0.225D-04 0.292D-13
          Norm of current diis error: 0.52343E-02
          max. resid. norm for Fia-block=  5.684D-04 for orbital     21a         
          max. resid. fock norm         =  5.684D-04 for orbital     21a         
          Delta Eig. =     0.0737353782 eV 
 
                                              current damping :  0.050
 ITERATION  ENERGY          1e-ENERGY        2e-ENERGY     RMS[dD(SAO)]   TOL
   8  -246.77692373666    -741.36908216     288.32608711    0.982D-05 0.271D-13
          Norm of current diis error: 0.26210E-02
          max. resid. norm for Fia-block=  3.753D-04 for orbital     21a         
          max. resid. fock norm         =  3.753D-04 for orbital     21a         
          Delta Eig. =     0.0158288384 eV 
 
                                              current damping :  0.050
 ITERATION  ENERGY          1e-ENERGY        2e-ENERGY     RMS[dD(SAO)]   TOL
   9  -246.77692502090    -741.36884347     288.32584712    0.558D-05 0.247D-13
          Norm of current diis error: 0.13430E-02
          max. resid. norm for Fia-block=  2.494D-04 for orbital     20a         
          max. resid. fock norm         =  2.530D-04 for orbital     20a         
          Delta Eig. =     0.0032334055 eV 
 
                                              current damping :  0.100
 ITERATION  ENERGY          1e-ENERGY        2e-ENERGY     RMS[dD(SAO)]   TOL
  10  -246.77692543369    -741.36917226     288.32617551    0.385D-05 0.226D-13
          Norm of current diis error: 0.58922E-03
          max. resid. norm for Fia-block=  1.121D-04 for orbital     21a         
          max. resid. fock norm         =  1.121D-04 for orbital     21a         
 mo-orthogonalization: Cholesky decomposition
          Delta Eig. =     0.0049384294 eV 
 
                                              current damping :  0.150
 ITERATION  ENERGY          1e-ENERGY        2e-ENERGY     RMS[dD(SAO)]   TOL
  11  -246.77692549753    -741.36900803     288.32601122    0.190D-05 0.215D-13
          Norm of current diis error: 0.25293E-03
          max. resid. norm for Fia-block=  4.831D-05 for orbital     20a         
          max. resid. fock norm         =  5.215D-05 for orbital     20a         
          Delta Eig. =     0.0016509598 eV 
 
                                              current damping :  0.200
 ITERATION  ENERGY          1e-ENERGY        2e-ENERGY     RMS[dD(SAO)]   TOL
  12  -246.77692550677    -741.36911772     288.32612090    0.599D-06 0.210D-13
          Norm of current diis error: 0.90656E-04
          max. resid. norm for Fia-block=  1.441D-05 for orbital     20a         
          max. resid. fock norm         =  1.448D-05 for orbital     20a         
          Delta Eig. =     0.0004542486 eV 
 
                                              current damping :  0.250
 ITERATION  ENERGY          1e-ENERGY        2e-ENERGY     RMS[dD(SAO)]   TOL
  13  -246.77692550800    -741.36910960     288.32611277    0.312D-06 0.206D-13
          Norm of current diis error: 0.32751E-04
          max. resid. norm for Fia-block=  6.146D-06 for orbital     20a         
          max. resid. fock norm         =  6.182D-06 for orbital     20a         
          Delta Eig. =     0.0000695168 eV 

 ENERGY & DENSITY CONVERGED !

 
                                              current damping :  0.100
 ITERATION  ENERGY          1e-ENERGY        2e-ENERGY     RMS[dD(SAO)]   TOL
  14  -246.77692550820    -741.36910937     288.32611254    0.119D-06 0.247D-13
          max. resid. norm for Fia-block=  1.637D-06 for orbital     19a         
          max. resid. fock norm         =  1.795D-06 for orbital     19a         

 convergence criteria satisfied after    14 iterations


                  ------------------------------------------ 
                 |  total energy      =   -246.77692550820  |
                  ------------------------------------------ 
                 :  kinetic energy    =    246.37165599239  :
                 :  potential energy  =   -493.14858150058  :
                 :  virial theorem    =      1.99835774955  :
                 :  wavefunction norm =      1.00000000000  :
                  .......................................... 


 orbitals $scfmo  will be written to file mos

    irrep                 17a         18a         19a         20a         21a   
 eigenvalues H         -0.54028    -0.51937    -0.41779    -0.38286    -0.34730
            eV         -14.7019    -14.1328    -11.3688    -10.4183     -9.4506
 occupation              2.0000      2.0000      2.0000      2.0000      2.0000 

    irrep                 22a         23a         24a         25a         26a   
 eigenvalues H          0.10660     0.11207     0.12307     0.14230     0.16327
            eV           2.9008      3.0497      3.3491      3.8721      4.4429
 
 
 
 
 ==============================================================================
                           electrostatic moments
 ==============================================================================

 reference point for electrostatic moments:    0.00000   0.00000   0.00000

 
              nuc           elec       ->  total
 ------------------------------------------------------------------------------
                          charge      
 ------------------------------------------------------------------------------
          42.000000     -42.000000      -0.000000
 
 ------------------------------------------------------------------------------
                       dipole moment  
 ------------------------------------------------------------------------------
   x     -26.371799      26.210000      -0.161799
   y       0.165729      -0.164827       0.000902
   z     -27.140077      26.232504      -0.907573
 
   | dipole moment | =     0.9219 a.u. =     2.3432 debye 
 
 ------------------------------------------------------------------------------
                     quadrupole moment
 ------------------------------------------------------------------------------
  xx      21.992568     -50.430362     -28.437794
  yy     180.314681    -201.979906     -21.665225
  zz     188.700544    -214.701908     -26.001363
  xy      -0.640860       0.619657      -0.021203
  xz      47.533143     -46.587220       0.945923
  yz      -0.005781       0.010777       0.004996
 
     1/3  trace=     -25.368127
     anisotropy=       6.163499
 
 ==============================================================================
 


    ------------------------------------------------------------------------
         total  cpu-time : 16 minutes and 42 seconds
         total wall-time :  1 minutes and 15 seconds
    ------------------------------------------------------------------------

   ****  dscf : all done  ****


    2019-04-01 23:57:56.762 

