
   OpenMP run-time library returned nthreads = 32
 operating system is UNIX !

 dscf (c-15-38) : TURBOMOLE V7.3 ( 22142 ) 4 Jul 2018 at 18:12:42
 Copyright (C) 2018 TURBOMOLE GmbH, Karlsruhe


    2019-03-07 21:19:14.241 



                             d s c f - program

                   idea & directorship : reinhart ahlrichs
                   program development : marco haeser
                                         michael baer
                           dft version : oliver treutler


                          quantum chemistry group
                          universitaet  karlsruhe
                                  germany




                          References             
                                                 
          TURBOMOLE:                             
              R. Ahlrichs, M. Baer, M. Haeser, H. Horn, and
              C. Koelmel
              Electronic structure calculations on workstation
              computers: the program system TURBOMOLE
              Chem. Phys. Lett. 162: 165 (1989)
          Density Functional:                              
              O. Treutler and R. Ahlrichs                      
              Efficient Molecular Numerical Integration Schemes
              J. Chem. Phys. 102: 346 (1995)                   
          Parallel Version:                                
              Performance of parallel TURBOMOLE for Density    
              Functional Calculations                          
              M. v. Arnim and R. Ahlrichs                      
              J. Comp. Chem. 19: 1746 (1998)                   
                                         



 UHF mode switched on !


              +--------------------------------------------------+
              | Atomic coordinate, charge and isotop information |
              +--------------------------------------------------+

                    atomic coordinates            atom    charge  isotop
          0.00000000    2.67619026    0.00000000    c      6.000     0
          0.00000000   -2.67619026    0.00000000    c      6.000     0
         -2.33600471   -1.28361301    0.00000000    c      6.000     0
         -2.33600471    1.28361301    0.00000000    c      6.000     0
          2.33600471   -1.28361301    0.00000000    c      6.000     0
          2.33600471    1.28361301    0.00000000    c      6.000     0
          0.00000000   -5.31470187    0.00000000    c      6.000     0
          0.00000000    5.31470187    0.00000000    c      6.000     0
         -2.28803089    6.71761315    0.00000000    c      6.000     0
         -2.28803089   -6.71761315    0.00000000    c      6.000     0
          2.28803089   -6.71761315    0.00000000    c      6.000     0
          2.28803089    6.71761315    0.00000000    c      6.000     0
         -4.17936506    7.84191527    0.00000000    n      7.000     0
          4.17936506   -7.84191527    0.00000000    n      7.000     0
          4.17936506    7.84191527    0.00000000    n      7.000     0
         -4.17936506   -7.84191527    0.00000000    n      7.000     0
         -4.10412672   -2.32439188    0.00000000    h      1.000     0
          4.10412672   -2.32439188    0.00000000    h      1.000     0
          4.10412672    2.32439188    0.00000000    h      1.000     0
         -4.10412672    2.32439188    0.00000000    h      1.000     0
 
       center of nuclear mass  :    0.00000000    0.00000000    0.00000000
       center of nuclear charge:    0.00000000    0.00000000    0.00000000

              +--------------------------------------------------+
              |               basis set information              |
              +--------------------------------------------------+

              we will work with the 1s 3p 5d 7f 9g ... basis set
              ...i.e. with spherical basis functions...

   type   atoms  prim   cont   basis
   ---------------------------------------------------------------------------
    c       12     77     55   cc-pVQZ   [5s4p3d2f1g|21s6p3d2f1g]
    n        4     77     55   cc-pVQZ   [5s4p3d2f1g|21s6p3d2f1g]
    h        4     32     30   cc-pVQZ   [4s3p2d1f|6s3p2d1f]
   ---------------------------------------------------------------------------
   total:   20   1360   1000
   ---------------------------------------------------------------------------

   total number of primitive shells          :   78
   total number of contracted shells         :  280
   total number of cartesian basis functions : 1260
   total number of SCF-basis functions       : 1000


 integral neglect threshold       :  0.26E-13
 integral storage threshold THIZE :  0.10E-04
 integral storage threshold THIME :         5


 DENSITY CONVERGENCE CHECK SWITCHED ON !
 SCF CONVERGENCE IF RMS(delta[D]) <     0.1000000000E-06


 symmetry group of the molecule :   c1 

 the group has the following generators :
   c1(z)

    1 symmetry operations found

 there are 1 real representations :   a   

 maximum number of shells which are related by symmetry :  1


    mo occupation :
   irrep   mo's   occupied
    a     1000       53
 
 number of basis functions   :                   1000
 number of occupied orbitals :                     53
 

 automatic virtual orbital shift switched on 
      shift if e(lumo)-e(homo) < 0.10000000    


          ------------------------
          nuclear repulsion energy  :   835.046582261    
          ------------------------


         -----------------
         -S,T+V- integrals
         -----------------

 1e-integrals will be neglected if expon. factor < 0.265235E-14
 
   Difference densities algorithm switched on.
   The maximal number of linear combinations of
   difference densities is                    20 .

 DIIS switched on: error vector is FDS-SDF
 Max. Iterations for DIIS is     :   5
 DIIS matrix (see manual) 
    Scaling factor of diagonals  :  1.200
    threshold for scaling factor :  0.000

 scf convergence criterion : increment of total energy < .1000000D-08
                  and increment of one-electron energy < .1000000D-05

  MOs are in ASCII format !


 reading orbital data $uhfmo_alpha  from file alpha
 orbital characterization : expanded

 reading orbital data $uhfmo_beta  from file beta
 orbital characterization : expanded
 mo provided and orthogonalized by Cholesky decomposition
 mo provided and orthogonalized by Cholesky decomposition

 DSCF restart information will be dumped onto file alpha

 
                                              current damping :  0.300
 ITERATION  ENERGY          1e-ENERGY        2e-ENERGY     RMS[dD(SAO)]   TOL
   1  -670.25832127945    -2535.2563941     1029.9514905    0.000D+00 0.265D-13
          max. resid. norm for Fia-block=  4.620D-01 for orbital     43a    alpha
          max. resid. fock norm         =  9.515D+00 for orbital    886a    beta 
          irrep a   : virtual orbitals shifted by    0.32547
          Delta Eig. =   653.6692866517 eV 
 
                                              current damping :  0.250
 ITERATION  ENERGY          1e-ENERGY        2e-ENERGY     RMS[dD(SAO)]   TOL
   2  -673.84899696868    -2566.9253822     1058.0298030    0.934D-02 0.235D-13
          Norm of current diis error:  3.0733    
          max. resid. norm for Fia-block=  1.676D-01 for orbital     25a    beta 
          max. resid. fock norm         =  5.805D-01 for orbital    913a    alpha
          irrep a   : virtual orbitals shifted by    0.16687
          Delta Eig. =   142.8647632611 eV 
 
                                              current damping :  0.200
 ITERATION  ENERGY          1e-ENERGY        2e-ENERGY     RMS[dD(SAO)]   TOL
   3  -674.45947964801    -2563.7259681     1054.2199062    0.257D-02 0.153D-13
          Norm of current diis error:  1.8208    
          max. resid. norm for Fia-block=  7.490D-02 for orbital     48a    alpha
          max. resid. fock norm         =  9.375D-02 for orbital     57a    beta 
          Delta Eig. =    36.3997319871 eV 
 
                                              current damping :  0.250
 ITERATION  ENERGY          1e-ENERGY        2e-ENERGY     RMS[dD(SAO)]   TOL
   4  -674.65727182459    -2566.8707281     1057.1668740    0.115D-02 0.131D-13
          Norm of current diis error: 0.49546    
          max. resid. norm for Fia-block=  3.618D-02 for orbital     37a    beta 
          max. resid. fock norm         =  4.593D-02 for orbital     53a    beta 
          Delta Eig. =     4.9408009719 eV 
 
                                              current damping :  0.150
 ITERATION  ENERGY          1e-ENERGY        2e-ENERGY     RMS[dD(SAO)]   TOL
   5  -674.68242355169    -2567.6590425     1057.9300366    0.344D-03 0.119D-13
          Norm of current diis error: 0.25702    
          max. resid. norm for Fia-block=  2.178D-02 for orbital     42a    beta 
          max. resid. fock norm         =  2.284D-02 for orbital     42a    beta 
 mo-orthogonalization: Cholesky decomposition
          Delta Eig. =     1.5555581587 eV 
 
                                              current damping :  0.100
 ITERATION  ENERGY          1e-ENERGY        2e-ENERGY     RMS[dD(SAO)]   TOL
   6  -674.69164151903    -2567.7312275     1057.9930037    0.142D-03 0.109D-13
          Norm of current diis error: 0.16360    
          max. resid. norm for Fia-block=  1.874D-02 for orbital     50a    beta 
          max. resid. fock norm         =  1.942D-02 for orbital     53a    beta 
          Delta Eig. =     0.2848009902 eV 
 
                                              current damping :  0.100
 ITERATION  ENERGY          1e-ENERGY        2e-ENERGY     RMS[dD(SAO)]   TOL
   7  -674.69681069765    -2567.7806590     1058.0372661    0.682D-04 0.100D-13
          Norm of current diis error: 0.11312    
          max. resid. norm for Fia-block=  1.538D-02 for orbital     49a    beta 
          max. resid. fock norm         =  1.538D-02 for orbital     49a    beta 
          Delta Eig. =     0.2083049786 eV 
 
                                              current damping :  0.100
 ITERATION  ENERGY          1e-ENERGY        2e-ENERGY     RMS[dD(SAO)]   TOL
   8  -674.69993452045    -2567.8642049     1058.1176881    0.334D-04 0.923D-14
          Norm of current diis error: 0.88723E-01
          max. resid. norm for Fia-block=  1.472D-02 for orbital     45a    alpha
          max. resid. fock norm         =  1.472D-02 for orbital     45a    alpha
          Delta Eig. =     0.1561386424 eV 
 
                                              current damping :  0.100
 ITERATION  ENERGY          1e-ENERGY        2e-ENERGY     RMS[dD(SAO)]   TOL
   9  -674.70232512521    -2567.8735201     1058.1246127    0.325D-04 0.842D-14
          Norm of current diis error: 0.74087E-01
          max. resid. norm for Fia-block=  1.276D-02 for orbital     49a    beta 
          max. resid. fock norm         =  1.276D-02 for orbital     49a    beta 
          Delta Eig. =     0.1055929407 eV 
 
                                              current damping :  0.100
 ITERATION  ENERGY          1e-ENERGY        2e-ENERGY     RMS[dD(SAO)]   TOL
  10  -674.70418037991    -2567.9302981     1058.1795354    0.193D-04 0.770D-14
          Norm of current diis error: 0.63844E-01
          max. resid. norm for Fia-block=  1.299D-02 for orbital     45a    alpha
          max. resid. fock norm         =  1.299D-02 for orbital     45a    alpha
 mo-orthogonalization: Cholesky decomposition
          Delta Eig. =     0.0893410938 eV 
 
                                              current damping :  0.100
 ITERATION  ENERGY          1e-ENERGY        2e-ENERGY     RMS[dD(SAO)]   TOL
  11  -674.70587397479    -2567.9390931     1058.1866369    0.216D-04 0.699D-14
          Norm of current diis error: 0.54292E-01
          max. resid. norm for Fia-block=  1.411D-02 for orbital     49a    beta 
          max. resid. fock norm         =  1.411D-02 for orbital     49a    beta 
          Delta Eig. =     0.0991011638 eV 
 
                                              current damping :  0.100
 ITERATION  ENERGY          1e-ENERGY        2e-ENERGY     RMS[dD(SAO)]   TOL
  12  -674.70740613375    -2567.9957081     1058.2417197    0.235D-04 0.632D-14
          Norm of current diis error: 0.43948E-01
          max. resid. norm for Fia-block=  1.350D-02 for orbital     46a    alpha
          max. resid. fock norm         =  1.350D-02 for orbital     46a    alpha
          Delta Eig. =     0.0847237373 eV 
 
                                              current damping :  0.100
 ITERATION  ENERGY          1e-ENERGY        2e-ENERGY     RMS[dD(SAO)]   TOL
  13  -674.70855944354    -2568.0109070     1058.2557653    0.233D-04 0.575D-14
          Norm of current diis error: 0.34208E-01
          max. resid. norm for Fia-block=  1.055D-02 for orbital     46a    alpha
          max. resid. fock norm         =  1.056D-02 for orbital     46a    alpha
          Delta Eig. =     0.0845934318 eV 
 
                                              current damping :  0.100
 ITERATION  ENERGY          1e-ENERGY        2e-ENERGY     RMS[dD(SAO)]   TOL
  14  -674.70919602636    -2568.0522009     1058.2964226    0.176D-04 0.535D-14
          Norm of current diis error: 0.27114E-01
          max. resid. norm for Fia-block=  8.135D-03 for orbital     46a    alpha
          max. resid. fock norm         =  8.137D-03 for orbital     46a    alpha
          Delta Eig. =     0.0477393289 eV 
 
                                              current damping :  0.100
 ITERATION  ENERGY          1e-ENERGY        2e-ENERGY     RMS[dD(SAO)]   TOL
  15  -674.70951506627    -2568.0536615     1058.2975642    0.105D-04 0.508D-14
          Norm of current diis error: 0.21763E-01
          max. resid. norm for Fia-block=  6.970D-03 for orbital     47a    beta 
          max. resid. fock norm         =  6.973D-03 for orbital     47a    beta 
 mo-orthogonalization: Cholesky decomposition
          Delta Eig. =     0.0437529921 eV 
 
                                              current damping :  0.100
 ITERATION  ENERGY          1e-ENERGY        2e-ENERGY     RMS[dD(SAO)]   TOL
  16  -674.70973265403    -2568.0730161     1058.3167012    0.860D-05 0.484D-14
          Norm of current diis error: 0.16879E-01
          max. resid. norm for Fia-block=  6.850D-03 for orbital     46a    alpha
          max. resid. fock norm         =  6.852D-03 for orbital     46a    alpha
          Delta Eig. =     0.0430250887 eV 
 
                                              current damping :  0.100
 ITERATION  ENERGY          1e-ENERGY        2e-ENERGY     RMS[dD(SAO)]   TOL
  17  -674.70987594113    -2568.0761490     1058.3196908    0.788D-05 0.462D-14
          Norm of current diis error: 0.11752E-01
          max. resid. norm for Fia-block=  5.708D-03 for orbital     47a    beta 
          max. resid. fock norm         =  5.710D-03 for orbital     47a    beta 
          Delta Eig. =     0.0323180399 eV 
 
                                              current damping :  0.100
 ITERATION  ENERGY          1e-ENERGY        2e-ENERGY     RMS[dD(SAO)]   TOL
  18  -674.70994516333    -2568.0883834     1058.3318559    0.696D-05 0.444D-14
          Norm of current diis error: 0.76454E-02
          max. resid. norm for Fia-block=  3.138D-03 for orbital     47a    beta 
          max. resid. fock norm         =  3.140D-03 for orbital     47a    beta 
          Delta Eig. =     0.0196637164 eV 
 
                                              current damping :  0.150
 ITERATION  ENERGY          1e-ENERGY        2e-ENERGY     RMS[dD(SAO)]   TOL
  19  -674.70996510102    -2568.0875766     1058.3310292    0.458D-05 0.433D-14
          Norm of current diis error: 0.49377E-02
          max. resid. norm for Fia-block=  1.576D-03 for orbital     47a    beta 
          max. resid. fock norm         =  1.576D-03 for orbital     47a    beta 
          Delta Eig. =     0.0100660407 eV 
 
                                              current damping :  0.200
 ITERATION  ENERGY          1e-ENERGY        2e-ENERGY     RMS[dD(SAO)]   TOL
  20  -674.70997030776    -2568.0910292     1058.3344766    0.246D-05 0.428D-14
          Norm of current diis error: 0.34168E-02
          max. resid. norm for Fia-block=  6.633D-04 for orbital     47a    beta 
          max. resid. fock norm         =  6.638D-04 for orbital     47a    beta 
 mo-orthogonalization: Cholesky decomposition
          Delta Eig. =     0.0043350345 eV 
 
                                              current damping :  0.250
 ITERATION  ENERGY          1e-ENERGY        2e-ENERGY     RMS[dD(SAO)]   TOL
  21  -674.70997261109    -2568.0894204     1058.3328656    0.161D-05 0.425D-14
          Norm of current diis error: 0.23622E-02
          max. resid. norm for Fia-block=  5.302D-04 for orbital     49a    beta 
          max. resid. fock norm         =  5.302D-04 for orbital     49a    beta 
          Delta Eig. =     0.0031366796 eV 
 
                                              current damping :  0.100
 ITERATION  ENERGY          1e-ENERGY        2e-ENERGY     RMS[dD(SAO)]   TOL
  22  -674.70997408778    -2568.0893636     1058.3328073    0.108D-05 0.265D-13
          Norm of current diis error: 0.16432E-02
          max. resid. norm for Fia-block=  4.577D-04 for orbital     49a    beta 
          max. resid. fock norm         =  4.577D-04 for orbital     49a    beta 
          Delta Eig. =     0.0024652176 eV 
 
                                              current damping :  0.100
 ITERATION  ENERGY          1e-ENERGY        2e-ENERGY     RMS[dD(SAO)]   TOL
  23  -674.70997510107    -2568.0880467     1058.3314893    0.909D-06 0.168D-13
          Norm of current diis error: 0.11244E-02
          max. resid. norm for Fia-block=  2.741D-04 for orbital     49a    beta 
          max. resid. fock norm         =  2.741D-04 for orbital     49a    beta 
          Delta Eig. =     0.0019038373 eV 
 
                                              current damping :  0.100
 ITERATION  ENERGY          1e-ENERGY        2e-ENERGY     RMS[dD(SAO)]   TOL
  24  -674.70997564624    -2568.0876773     1058.3311194    0.570D-06 0.121D-13
          Norm of current diis error: 0.81589E-03
          max. resid. norm for Fia-block=  1.929D-04 for orbital     49a    beta 
          max. resid. fock norm         =  1.929D-04 for orbital     49a    beta 
          Delta Eig. =     0.0019364484 eV 
 
                                              current damping :  0.100
 ITERATION  ENERGY          1e-ENERGY        2e-ENERGY     RMS[dD(SAO)]   TOL
  25  -674.70997593631    -2568.0866999     1058.3301417    0.393D-06 0.993D-14
          Norm of current diis error: 0.63639E-03
          max. resid. norm for Fia-block=  1.612D-04 for orbital     46a    alpha
          max. resid. fock norm         =  1.613D-04 for orbital     46a    alpha
 mo-orthogonalization: Cholesky decomposition
          Delta Eig. =     0.0014320758 eV 
 
                                              current damping :  0.100
 ITERATION  ENERGY          1e-ENERGY        2e-ENERGY     RMS[dD(SAO)]   TOL
  26  -674.70997611222    -2568.0866115     1058.3300531    0.299D-06 0.869D-14
          Norm of current diis error: 0.48097E-03
          max. resid. norm for Fia-block=  1.479D-04 for orbital     47a    beta 
          max. resid. fock norm         =  1.480D-04 for orbital     47a    beta 
          Delta Eig. =     0.0013005873 eV 
 
                                              current damping :  0.100
 ITERATION  ENERGY          1e-ENERGY        2e-ENERGY     RMS[dD(SAO)]   TOL
  27  -674.70997622429    -2568.0859692     1058.3294107    0.243D-06 0.780D-14
          Norm of current diis error: 0.35719E-03
          max. resid. norm for Fia-block=  1.315D-04 for orbital     46a    alpha
          max. resid. fock norm         =  1.315D-04 for orbital     46a    alpha
          Delta Eig. =     0.0008627240 eV 
 
                                              current damping :  0.100
 ITERATION  ENERGY          1e-ENERGY        2e-ENERGY     RMS[dD(SAO)]   TOL
  28  -674.70997629047    -2568.0858293     1058.3292707    0.205D-06 0.714D-14
          Norm of current diis error: 0.25146E-03
          max. resid. norm for Fia-block=  1.058D-04 for orbital     47a    beta 
          max. resid. fock norm         =  1.059D-04 for orbital     47a    beta 
          Delta Eig. =     0.0005784944 eV 
 
                                              current damping :  0.100
 ITERATION  ENERGY          1e-ENERGY        2e-ENERGY     RMS[dD(SAO)]   TOL
  29  -674.70997632193    -2568.0855375     1058.3289789    0.145D-06 0.662D-14
          Norm of current diis error: 0.17610E-03
          max. resid. norm for Fia-block=  7.466D-05 for orbital     47a    beta 
          max. resid. fock norm         =  7.470D-05 for orbital     47a    beta 
          Delta Eig. =     0.0004598324 eV 
 
                                              current damping :  0.100
 ITERATION  ENERGY          1e-ENERGY        2e-ENERGY     RMS[dD(SAO)]   TOL
  30  -674.70997633551    -2568.0854808     1058.3289222    0.105D-06 0.619D-14
          Norm of current diis error: 0.11920E-03
          max. resid. norm for Fia-block=  4.847D-05 for orbital     47a    beta 
          max. resid. fock norm         =  4.848D-05 for orbital     47a    beta 
 mo-orthogonalization: Cholesky decomposition
          Delta Eig. =     0.0002511575 eV 

 DENSITY CONVERGED !

 
                                              current damping :  0.100
 ITERATION  ENERGY          1e-ENERGY        2e-ENERGY     RMS[dD(SAO)]   TOL
  31  -674.70997634049    -2568.0853905     1058.3288319    0.672D-07 0.584D-14
          Norm of current diis error: 0.77428E-04
          max. resid. norm for Fia-block=  2.427D-05 for orbital     47a    beta 
          max. resid. fock norm         =  2.428D-05 for orbital     47a    beta 
          Delta Eig. =     0.0001512126 eV 

 DENSITY CONVERGED !

 
                                              current damping :  0.150
 ITERATION  ENERGY          1e-ENERGY        2e-ENERGY     RMS[dD(SAO)]   TOL
  32  -674.70997634213    -2568.0854192     1058.3288605    0.421D-07 0.558D-14
          Norm of current diis error: 0.50430E-04
          max. resid. norm for Fia-block=  9.835D-06 for orbital     47a    beta 
          max. resid. fock norm         =  9.836D-06 for orbital     47a    beta 
          Delta Eig. =     0.0000858287 eV 

 DENSITY CONVERGED !

 
                                              current damping :  0.200
 ITERATION  ENERGY          1e-ENERGY        2e-ENERGY     RMS[dD(SAO)]   TOL
  33  -674.70997634269    -2568.0853990     1058.3288404    0.230D-07 0.754D-14
          Norm of current diis error: 0.34221E-04
          max. resid. norm for Fia-block=  7.885D-06 for orbital     49a    beta 
          max. resid. fock norm         =  7.885D-06 for orbital     49a    beta 
          Delta Eig. =     0.0000647889 eV 

 DENSITY CONVERGED !

 
                                              current damping :  0.250
 ITERATION  ENERGY          1e-ENERGY        2e-ENERGY     RMS[dD(SAO)]   TOL
  34  -674.70997634298    -2568.0854299     1058.3288713    0.142D-07 0.755D-14
          Norm of current diis error: 0.24121E-04
          max. resid. norm for Fia-block=  5.883D-06 for orbital     44a    alpha
          max. resid. fock norm         =  5.883D-06 for orbital     44a    alpha
          Delta Eig. =     0.0000375743 eV 

 ENERGY & DENSITY CONVERGED !

 
                                              current damping :  0.100
 ITERATION  ENERGY          1e-ENERGY        2e-ENERGY     RMS[dD(SAO)]   TOL
  35  -674.70997634317    -2568.0854348     1058.3288762    0.103D-07 0.755D-14
          max. resid. norm for Fia-block=  1.459D-06 for orbital     49a    beta 
          max. resid. fock norm         =  1.459D-06 for orbital     49a    beta 

 convergence criteria satisfied after    35 iterations


                  ------------------------------------------ 
                 |  total energy      =   -674.70997634317  |
                  ------------------------------------------ 
                 :  kinetic energy    =    673.98778751212  :
                 :  potential energy  =  -1348.69776385529  :
                 :  virial theorem    =      1.99892963072  :
                 :  wavefunction norm =      1.00000000000  :
                  .......................................... 


 orbitals $uhfmo_beta  will be written to file beta

 orbitals $uhfmo_alpha  will be written to file alpha
 
 alpha: 

    irrep                 49a         50a         51a         52a         53a   
 eigenvalues H         -0.52244    -0.50433    -0.45075    -0.42175    -0.31903
            eV         -14.2163    -13.7236    -12.2658    -11.4766     -8.6814
 occupation              1.0000      1.0000      1.0000      1.0000      1.0000 

    irrep                 54a         55a         56a         57a         58a   
 eigenvalues H          0.05543     0.06242     0.10360     0.11498     0.11871
            eV           1.5085      1.6986      2.8193      3.1287      3.2304
 
 beta:  

    irrep                 47a         48a         49a         50a         51a   
 eigenvalues H         -0.49719    -0.49354    -0.49341    -0.40672    -0.38823
            eV         -13.5293    -13.4300    -13.4266    -11.0675    -10.5643
 occupation              1.0000      1.0000      1.0000      1.0000      1.0000 

    irrep                 52a         53a         54a         55a         56a   
 eigenvalues H         -0.07385     0.01689     0.08028     0.10277     0.10349
            eV          -2.0096      0.4597      2.1846      2.7967      2.8161
 

                                             _ _ _ 
  IRREP     alpha occ.     beta occ.      tr(D*D-D)


 a         53.00000000    51.00000000    -0.82729480

   -------------------------------------------------

   sum     53.00000000    51.00000000    -0.82729480

 <S*S>     2.65458959

 
 
 
 ==============================================================================
                           electrostatic moments
 ==============================================================================

 reference point for electrostatic moments:    0.00000   0.00000   0.00000

 
              nuc           elec       ->  total
 ------------------------------------------------------------------------------
                          charge      
 ------------------------------------------------------------------------------
         104.000000    -104.000000      -0.000000
 a-b                                     2.000000
 
 ------------------------------------------------------------------------------
                       dipole moment  
 ------------------------------------------------------------------------------
   x       0.000000      -0.000000      -0.000000
   y       0.000000      -0.000000      -0.000000
   z       0.000000      -0.000000      -0.000000
 
   | dipole moment | =     0.0000 a.u. =     0.0000 debye 
 
 ------------------------------------------------------------------------------
                     quadrupole moment
 ------------------------------------------------------------------------------
  xx     813.062090    -892.425848     -79.363758
  yy    3290.961308   -3388.856903     -97.895596
  zz       0.000000     -67.905064     -67.905064
  xy       0.000000       0.000000       0.000000
  xz       0.000000      -0.000000      -0.000000
  yz       0.000000      -0.000000      -0.000000
 
     1/3  trace=     -81.721473
     anisotropy=      26.212236
 
 ==============================================================================
 


    ------------------------------------------------------------------------
         total  cpu-time :   1 days  4 hours  9 minutes and 32 seconds
         total wall-time :  1 hours  4 minutes and 55 seconds
    ------------------------------------------------------------------------

   ****  dscf : all done  ****


    2019-03-07 22:24:09.509 

