Using Slurm to start processes with PMI2
STARTING ridft ON 8 PROCESSORS!
RUNNING PROGRAM /beegfs/modfac/apps/TURBOMOLE/7.0_intel_GA/bin/em64t-unknown-linux-gnu_mpi/ridft_mpi.
PLEASE WAIT UNTIL ridft HAS FINISHED.
Look for the output in slave1.output.
  this is node-proc. number 1 running on node c-9-333.local
  the total number of node-proc. spawned is            8
  parallel platform: MPP, or cluster with fast interconnect

 ridft (c-9-333.local) : TURBOMOLE V7.0.2( ) 15 Jan 2016 at 17:47:42
 Copyright (C) 2016 TURBOMOLE GmbH, Karlsruhe


    2017-11-02 18:35:38.920 



                                  r i d f t

                        DFT program with RI approximation 
                                for coulomb part 




                                                 
                                 References:     
                                                 
          TURBOMOLE:                             
              R. Ahlrichs, M. Baer, M. Haeser, H. Horn, and
              C. Koelmel
              Electronic structure calculations on workstation
              computers: the program system TURBOMOLE
              Chem. Phys. Lett. 162: 165 (1989)
          Density Functional:                              
              O. Treutler and R. Ahlrichs                      
              Efficient Molecular Numerical Integration Schemes
              J. Chem. Phys. 102: 346 (1995)                   
          Parallel Version:                                
              Performance of parallel TURBOMOLE for Density    
              Functional Calculations                          
              M. v. Arnim and R. Ahlrichs                      
              J. Comp. Chem. 19: 1746 (1998)                   
          RI-J Method:                                     
              Auxiliary Basis Sets to approximate Coulomb      
              Potentials                                       
              Chem. Phys. Lett. 240: 283 (1995)                
              K. Eichkorn, O. Treutler, H. Oehm, M. Haeser     
              and R. Ahlrichs                                  
              Chem. Phys. Lett. 242: 652 (1995)                
                                                           
              Auxiliary Basis Sets for Main Row Atoms and their
              Use to approximate Coulomb Potentials            
              K. Eichkorn, F. Weigend, O. Treutler and         
              R. Ahlrichs                                      
              Theo. Chem. Acc. 97: 119 (1997)                   
                                                           
              Accurate Coulomb-fitting basis sets for H to Rn 
              F. Weigend                                        
              Phys. Chem. Chem. Phys. 8: 1057 (2006)            
                                                           
          Multipole accelerated RI-J (MARI-J):             
              Fast evaluation of the Coulomb potential for     
              electron densities using multipole accelerated   
              resolution of identity approximation             
              M. Sierka, A. Hogekamp and R. Ahlrichs           
              J. Chem. Phys. 118: 9136 (2003)                  
          RI-JK Method:                                     
              A fully direct RI-HF algorithm: Implementation,
              optimised auxiliary basis sets, demonstration of
              accuracy and efficiency                         
              F. Weigend                                      
              Phys. Chem. Chem. Phys. 4: 4285 (2002)           
          Two-component HF and DFT with spin-orbit coupling:  
              Self-consistent treatment of spin-orbit         
              interactions with efficient Hartree-Fock and    
              density functional methods                      
              M. K. Armbruster, F. Weigend, C. van Wüllen and 
              W. Klopper                                      
              Phys. Chem. Chem. Phys. 10: 1748 (2008)         
          Relativistic all-electron 2c calculations           
              An efficient implementation of two-component    
              relativistic exact-decoupling methods for large 
              molecules                                       
              D. Peng, N. Middendorf, F. Weigend, M. Reiher   
              J. Chem. Phys. 138, 184105 (2013)               
                                         


 


              +--------------------------------------------------+
              |      general information about current run       |
              +--------------------------------------------------+

 

 SCF run will be profiled !


 DENSITY CONVERGENCE CHECK SWITCHED ON !
 SCF CONVERGENCE IF RMS(delta[D]) <     0.1000000000E-06

 PBE functional
 exchange:    LDA + PBE
 correlation: LDA (PW) + PBE
 A DFT calculation using the RI-J approximation will be carried out.
 Allocatable memory for RI due to $ricore (MB):       10000


              +--------------------------------------------------+
              | Atomic coordinate, charge and isotop information |
              +--------------------------------------------------+

                    atomic coordinates            atom    charge  isotop
         -2.25717809   -9.15665418    8.68631099    c      6.000     0
         -4.16940368   -8.28468371    7.05619864    c      6.000     0
         -6.56050345   -7.84419932    8.14162313    c      6.000     0
         -6.93363705   -8.17553937   10.69503657    c      6.000     0
         -5.02267947   -8.95523356   12.20673660    n      7.000     0
         -2.71273682   -9.47258200   11.23037293    c      6.000     0
         -5.36229217   -9.01186223   15.01936586    c      6.000     0
         -4.51289485   -6.50822984   16.09940992    c      6.000     0
         -1.99841978   -6.20099287   16.85742102    c      6.000     0
         -1.13010460   -3.83915646   17.63446356    c      6.000     0
         -2.76823298   -1.76379081   17.65935881    c      6.000     0
         -5.30400508   -2.09020019   16.98285783    c      6.000     0
         -6.17249316   -4.45181059   16.20688904    c      6.000     0
         -1.74094478    0.83412663   18.25265250    c      6.000     0
         -0.96947297    2.08222970   15.82864467    n      7.000     0
          1.32509996    1.53505931   14.83264731    c      6.000     0
          1.97757289    2.40964989   12.46860049    c      6.000     0
          0.27811534    3.87337808   11.03926191    c      6.000     0
         -2.05335752    4.46106118   12.18279642    c      6.000     0
         -2.63345563    3.54308305   14.54712349    c      6.000     0
          0.88956968    4.70351209    8.46080411    c      6.000     0
          3.40960281    4.83508182    7.62232506    c      6.000     0
          3.97149814    5.51777090    5.15389128    c      6.000     0
          2.04032918    6.09898451    3.42270485    c      6.000     0
         -0.47577351    6.00546008    4.27283878    c      6.000     0
         -1.04101932    5.32042944    6.73998661    c      6.000     0
          2.62570549    6.73710780    0.77303348    c      6.000     0
          4.69762276    5.62511962   -0.46512264    c      6.000     0
          5.20604262    6.15276782   -2.98278795    c      6.000     0
          3.66384751    7.81969883   -4.36557785    c      6.000     0
          1.61296780    8.96236671   -3.11694168    c      6.000     0
          1.10499468    8.42994016   -0.60023711    c      6.000     0
          4.14730522    8.29396964   -7.05862505    c      6.000     0
          6.53829860    7.86195821   -8.14759410    c      6.000     0
          6.90670052    8.19651835  -10.70121995    c      6.000     0
          4.99063368    8.97037122  -12.20947292    n      7.000     0
          2.68032367    9.47933720  -11.22972400    c      6.000     0
          2.22975306    9.16117119   -8.68493734    c      6.000     0
          5.32647316    9.02944046  -15.02281083    c      6.000     0
          4.49557494    6.51906874  -16.10160805    c      6.000     0
          1.98272088    6.19166103  -16.85650375    c      6.000     0
          1.13196958    3.82271244  -17.63104637    c      6.000     0
          2.78614342    1.76001646  -17.65636189    c      6.000     0
          5.31998195    2.10664364  -16.98291131    c      6.000     0
          6.17096040    4.47555160  -16.20950687    c      6.000     0
          1.77811702   -0.84576772  -18.24799452    c      6.000     0
          1.00356061   -2.09298413  -15.82442661    n      7.000     0
         -1.29987968   -1.56105363  -14.84110138    c      6.000     0
         -1.95690193   -2.43390622  -12.47758538    c      6.000     0
         -0.25354796   -3.88079431  -11.03591123    c      6.000     0
          2.08808861   -4.45327664  -12.16659201    c      6.000     0
          2.67268502   -3.53703404  -14.53041566    c      6.000     0
         -0.87128450   -4.70859640   -8.45811692    c      6.000     0
         -3.39395173   -4.84906485   -7.62888619    c      6.000     0
         -3.96251911   -5.52921130   -5.16129182    c      6.000     0
         -2.03564190   -6.09944504   -3.42177076    c      6.000     0
          0.48323718   -5.99767611   -4.26252239    c      6.000     0
          1.05514276   -5.31445753   -6.72865657    c      6.000     0
         -2.62838417   -6.73539080   -0.77337155    c      6.000     0
         -4.70539993   -5.62485903    0.45742673    c      6.000     0
         -5.22054060   -6.15044610    2.97417930    c      6.000     0
         -3.67983875   -7.81321499    4.36371156    c      6.000     0
         -1.62393332   -8.95463093    3.12207040    c      6.000     0
         -1.10978665   -8.42503159    0.60603857    c      6.000     0
         -4.19470862  -10.56704429   15.71683052    h      1.000     0
         -7.35705929   -9.38769040   15.37176917    h      1.000     0
         -0.73157497   -7.82268838   16.81740475    h      1.000     0
          0.82756984   -3.58037869   18.21437289    h      1.000     0
         -6.60257253   -0.49985599   17.04672698    h      1.000     0
         -8.14217606   -4.68526943   15.67260998    h      1.000     0
         -3.14603723    2.05721388   19.13258949    h      1.000     0
         -0.03926114    0.72243833   19.41916684    h      1.000     0
          2.57326237    0.40756423   16.02523004    h      1.000     0
          3.81034834    1.88031756   11.72705948    h      1.000     0
         -3.43243033    5.64937350   11.24830870    h      1.000     0
         -4.41056561    3.93447255   15.48243966    h      1.000     0
          4.95089746    4.44457067    8.91727898    h      1.000     0
          5.93464731    5.64075673    4.57167705    h      1.000     0
         -2.00867476    6.39673827    2.96711286    h      1.000     0
         -3.00814448    5.18622657    7.30353280    h      1.000     0
          5.87681225    4.27468807    0.53185378    h      1.000     0
          6.77015155    5.19355814   -3.89840901    h      1.000     0
          0.42717732   10.31452472   -4.10216987    h      1.000     0
         -0.46693526    9.36954922    0.32404419    h      1.000     0
          8.13842949    7.27592371   -7.01469742    h      1.000     0
          8.70837033    7.86787759  -11.61325734    h      1.000     0
          1.26733349   10.15780255  -12.57017251    h      1.000     0
          0.34067397    9.54128734   -7.99493106    h      1.000     0
          4.14628307   10.57551026  -15.71888710    h      1.000     0
          7.31775809    9.42115405  -15.37748729    h      1.000     0
          0.70350479    7.80357115  -16.81713074    h      1.000     0
         -0.82416947    3.54874807  -18.20905595    h      1.000     0
          6.63090330    0.52651927  -17.04756753    h      1.000     0
          8.13929612    4.72445290  -15.67726324    h      1.000     0
          3.19508847   -2.06178740  -19.11862101    h      1.000     0
          0.08091656   -0.74762781  -19.42231890    h      1.000     0
         -2.55154054   -0.44759373  -16.04324990    h      1.000     0
         -3.79708776   -1.91590394  -11.74653670    h      1.000     0
          3.47206582   -5.62806476  -11.22238374    h      1.000     0
          4.45822451   -3.91561006  -15.45488594    h      1.000     0
         -4.93206540   -4.46720127   -8.93013139    h      1.000     0
         -5.92740456   -5.65921595   -4.58638403    h      1.000     0
          2.01269779   -6.38130053   -2.95045436    h      1.000     0
          3.02392162   -5.17353139   -7.28459944    h      1.000     0
         -5.88302926   -4.27650051   -0.54426305    h      1.000     0
         -6.78997988   -5.19360898    3.88307785    h      1.000     0
         -0.43788866  -10.30280540    4.11232998    h      1.000     0
          0.46468044   -9.36541544   -0.31318261    h      1.000     0
         -8.15755238   -7.25420433    7.00648713    h      1.000     0
         -8.73517609   -7.83829052   11.60424656    h      1.000     0
         -1.30528108  -10.15812267   12.57277995    h      1.000     0
         -0.36763734   -9.54171725    8.00044055    h      1.000     0
         -0.55440577   12.62914122  -15.90087132    cl    17.000     0
          4.79184772   -0.80290873   19.78382464    cl    17.000     0
         -4.74845035    0.74693013  -19.80970312    cl    17.000     0
          0.45852258  -12.67004510   15.90027001    cl    17.000     0
 
       center of nuclear mass  :   -0.00151935   -0.00283385   -0.00076787
       center of nuclear charge:   -0.00136034   -0.00253647   -0.00068739

              +--------------------------------------------------+
              |               basis set information              |
              +--------------------------------------------------+

              we will work with the 1s 3p 5d 7f 9g ... basis set
              ...i.e. with spherical basis functions...

   type   atoms  prim   cont   basis
   ---------------------------------------------------------------------------
    c       60     77     57   def2-QZVP   [7s4p3d2f1g|15s8p3d2f1g]
    n        4     77     57   def2-QZVP   [7s4p3d2f1g|15s8p3d2f1g]
    h       48     33     30   def2-QZVP   [4s3p2d1f|7s3p2d1f]
    cl       4    105     70   def2-QZVP   [9s6p4d2f1g|20s14p4d2f1g]
   ---------------------------------------------------------------------------
   total:  116   6932   5368
   ---------------------------------------------------------------------------

   total number of primitive shells          :  112
   total number of contracted shells         : 1656
   total number of cartesian basis functions : 6632
   total number of SCF-basis functions       : 5368


 integral neglect threshold       :  0.50E-14
 integral storage threshold THIZE :  0.10E-04
 integral storage threshold THIME :         5

 RI-J AUXILIARY BASIS SET information:

              we will work with the 1s 3p 5d 7f 9g ... basis set
              ...i.e. with spherical basis functions...

   type   atoms  prim   cont   basis
   ---------------------------------------------------------------------------
    c       60     70     49   def2-QZVP   [6s4p3d1f1g|12s5p4d2f1g]
    n        4     70     49   def2-QZVP   [6s4p3d1f1g|12s5p4d2f1g]
    h       48     16     11   def2-QZVP   [3s1p1d|5s2p1d]
    cl       4     77     51   def2-QZVP   [8s4p3d1f1g|14s5p5d2f1g]
   ---------------------------------------------------------------------------
   total:  116   5556   3868
   ---------------------------------------------------------------------------

   total number of primitive shells          :   83
   total number of contracted shells         : 1268
   total number of cartesian basis functions : 4732
   total number of SCF-basis functions       : 3868


 symmetry group of the molecule :   c1 

 the group has the following generators :
   c1(z)

    1 symmetry operations found

 there are 1 real representations :   a   

 maximum number of shells which are related by symmetry :  1


    mo occupation :
   irrep   mo's   occupied
    a     5368      252
 
 number of basis functions   :         5368
 number of occupied orbitals :          252
 
  
           ------------------
           density functional
           ------------------
 PBE functional
 exchange:    LDA + PBE
 correlation: LDA (PW) + PBE
 grinp -> nfun, dfgga, dfhybrid 
           6 T F
 iterations will be done with small grid
  
 spherical integration : Lebedev's spherical grid
 spherical gridsize    :           5
    i.e. gridpoints    :         590
 value for diffuse not defined
 radial integration    : Chebyshev 2nd kind (scaling 3)
 radial gridsize       :           8
 integration cells     :         116
 partition function    : becke
 partition sharpness   :           3
  

 <rddim> : input of entry tasksize
           from data group '$pardft' failed !

               Default values taken

 <rddim> : input of entry memdiv
           from data group '$pardft' failed !

               Default values taken
  RIDFT: memory allocation for DFT gridpoints
  MEMORY is divided by 1 as DEFAULT
 Each node can hold at most  the            1 -th part
 of the gridpoints    

 biggest AO integral is expected to be    12.165751258
  
           ------------------------
               RI-J - INFORMATION
           ------------------------
 
 
 **************************************************
 *      MEMORY ALLOCATION FOR PARALLEL RI-DFT     *
 **************************************************
 
 
MEMORY FOR (MU NU/ ALPHA), SEQUENTIAL RUN               9873 MByte
 
            DIFFERENCE IN MEMORY NEED:       DIAG./SLAVE  
 
      TOTAL DIFFERENCE :                   1295 MByte
 
      difference in xcore:                  127 MByte
      difference in fatmat:                 393 MByte
      getcor calls skipped by slaves:       776 MByte
 
 
           Integral memory available for diagonal.      9873 MByte
 
           Integral memory available for slave             0 MByte
 
         MEMORY FOR (MU NU/ ALPHA) ON DIAGONALIZER      9873 MByte
 
         MEMORY FOR (MU NU/ ALPHA) ON ONE SLAVE            0 MByte
 
         TOTAL MEMORY FOR (MU NU/ ALPHA),ALL NODES      9873 MByte
 
 Contributions to RI integral batches: 
  neglected integral batches:     1036826
  direct contribution:             271224
  memory contribution:       63946
 Memory core needed for (P|Q) and Cholesky    115 MByte
 Memory core minimum needed except of (P|Q)    15 MByte
 Total minimum memory core needed (sum)       129 MByte
     number of direct tasks:         160
  
 ****************************************
 Memory allocated for RI-J 10002 MByte
 ****************************************
                                            

          ------------------------
          nuclear repulsion energy  :   9675.96618334    
          ------------------------

 
          -----------------
          -S integrals
          -----------------

 1e-integrals will be neglected if expon. factor < 0.503915E-15
 
          -----------------
          -T+V integrals
          -----------------

 1e-integrals will be neglected if expon. factor < 0.503915E-15
 Difference densities >>NOT<< switched on in parallel ridft!

 automatic virtual orbital shift switched on 
      shift if e(lumo)-e(homo) < 0.10000000    


 DIIS switched on: error vector is FDS-SDF
 Max. Iterations for DIIS is     :   4
 DIIS matrix (see manual) 
    Scaling factor of diagonals  :  1.200
    threshold for scaling factor :  0.000

 scf convergence criterion : increment of total energy < .1000000D-08
                  and increment of one-electron energy < .1000000D-05


 <geterg> : there is no data group $energy 

  MOs are in ASCII format !


 reading orbital data $scfmo  from file mos . 

 orbital characterization : expanded
 
 mo provided and orthogonalized by Cholesky decomposition

 DSCF restart information will be dumped onto file mos


 Starting SCF iterations


 ITERATION  ENERGY          1e-ENERGY        2e-ENERGY     RMS[dD(SAO)]   TOL
   1  -4363.5309788817    -25131.518052     11092.020890    0.000D+00 0.503D-14
                            Exc = -471.757664068     Coul =  11563.7785541    
                              N = 503.99884716    
                            current damping = 0.700
 
          max. resid. norm for Fia-block=  5.759D-01 for orbital     91a         
          max. resid. fock norm         =  7.840D+01 for orbital   4664a         

 ITERATION  ENERGY          1e-ENERGY        2e-ENERGY     RMS[dD(SAO)]   TOL
   2  -4370.3936217242    -25203.523759     11157.163954    0.346D-02 0.503D-14
                            Exc = -477.339193689     Coul =  11634.5031478    
                              N = 503.99895188    
                            current damping = 0.650
 
          Norm of current diis error:  9.6606    
          max. resid. norm for Fia-block=  1.355D-01 for orbital      8a         
          max. resid. fock norm         =  2.149D-01 for orbital   5141a         

 ITERATION  ENERGY          1e-ENERGY        2e-ENERGY     RMS[dD(SAO)]   TOL
   3  -4371.7633771648    -25218.456292     11170.726732    0.202D-02 0.503D-14
                            Exc = -478.772073203     Coul =  11649.4988049    
                              N = 503.99898203    
                            current damping = 0.550
 
          Norm of current diis error:  4.6096    
          max. resid. norm for Fia-block=  5.499D-02 for orbital      8a         
          max. resid. fock norm         =  1.079D-01 for orbital   5268a         
          irrep a   : virtual orbitals shifted by    0.03912

 ITERATION  ENERGY          1e-ENERGY        2e-ENERGY     RMS[dD(SAO)]   TOL
   4  -4372.1627884619    -25232.040718     11183.911746    0.953D-03 0.503D-14
                            Exc = -479.722095086     Coul =  11663.6338409    
                              N = 503.99899158    
                            current damping = 0.450
 
          Norm of current diis error:  1.7963    
          max. resid. norm for Fia-block=  2.307D-02 for orbital     87a         
          max. resid. fock norm         =  5.117D-02 for orbital   5131a         
          irrep a   : virtual orbitals shifted by    0.10673

 ITERATION  ENERGY          1e-ENERGY        2e-ENERGY     RMS[dD(SAO)]   TOL
   5  -4372.2333011182    -25234.441359     11186.241874    0.524D-03 0.503D-14
                            Exc = -480.013840658     Coul =  11666.2557147    
                              N = 503.99900953    
                            current damping = 0.350
 
          Norm of current diis error: 0.79980    
          max. resid. norm for Fia-block=  1.098D-02 for orbital     88a         
          max. resid. fock norm         =  1.751D-02 for orbital   5168a         
          irrep a   : virtual orbitals shifted by    0.09945
          mo-orthogonalization: Cholesky decomposition

 ITERATION  ENERGY          1e-ENERGY        2e-ENERGY     RMS[dD(SAO)]   TOL
   6  -4372.2487666646    -25238.247400     11190.032450    0.313D-03 0.503D-14
                            Exc = -480.226769441     Coul =  11670.2592196    
                              N = 503.99901872    
                            current damping = 0.250
 
          Norm of current diis error: 0.45764    
          max. resid. norm for Fia-block=  5.126D-03 for orbital    241a         
          max. resid. fock norm         =  1.190D-02 for orbital   5112a         
          irrep a   : virtual orbitals shifted by    0.11308

 ITERATION  ENERGY          1e-ENERGY        2e-ENERGY     RMS[dD(SAO)]   TOL
   7  -4372.2548853422    -25238.626430     11190.405361    0.119D-03 0.503D-14
                            Exc = -480.239911335     Coul =  11670.6452725    
                              N = 503.99902761    
                            current damping = 0.100
 
          Norm of current diis error: 0.12570    
          max. resid. norm for Fia-block=  3.451D-03 for orbital    241a         
          max. resid. fock norm         =  6.255D-03 for orbital   2755a         
          irrep a   : virtual orbitals shifted by    0.09678

 ITERATION  ENERGY          1e-ENERGY        2e-ENERGY     RMS[dD(SAO)]   TOL
   8  -4372.2559328897    -25238.547224     11190.325108    0.325D-04 0.503D-14
                            Exc = -480.254057633     Coul =  11670.5791654    
                              N = 503.99903656    
                            current damping = 0.150
 
          Norm of current diis error: 0.98540E-01
          max. resid. norm for Fia-block=  2.582D-03 for orbital    241a         
          max. resid. fock norm         =  3.066D-03 for orbital    253a         
          irrep a   : virtual orbitals shifted by    0.10431

 ITERATION  ENERGY          1e-ENERGY        2e-ENERGY     RMS[dD(SAO)]   TOL
   9  -4372.2565623261    -25238.957909     11190.735164    0.181D-04 0.503D-14
                            Exc = -480.254518566     Coul =  11670.9896821    
                              N = 503.99903859    
                            current damping = 0.200
 
          Norm of current diis error: 0.42843E-01
          max. resid. norm for Fia-block=  1.727D-03 for orbital    241a         
          max. resid. fock norm         =  1.956D-03 for orbital   5107a         
          irrep a   : virtual orbitals shifted by    0.08401

 ITERATION  ENERGY          1e-ENERGY        2e-ENERGY     RMS[dD(SAO)]   TOL
  10  -4372.2568193338    -25239.107228     11190.884225    0.235D-04 0.503D-14
                            Exc = -480.258095681     Coul =  11671.1423209    
                              N = 503.99904109    
                            current damping = 0.050
 
          Norm of current diis error: 0.27079E-01
          max. resid. norm for Fia-block=  1.136D-03 for orbital    241a         
          max. resid. fock norm         =  1.217D-03 for orbital    254a         
          irrep a   : virtual orbitals shifted by    0.09940
          mo-orthogonalization: Cholesky decomposition

 ITERATION  ENERGY          1e-ENERGY        2e-ENERGY     RMS[dD(SAO)]   TOL
  11  -4372.2569526240    -25239.060857     11190.837721    0.181D-04 0.503D-14
                            Exc = -480.256914635     Coul =  11671.0946353    
                              N = 503.99904257    
                            current damping = 0.100
 
          Norm of current diis error: 0.26151E-01
          max. resid. norm for Fia-block=  9.378D-04 for orbital    241a         
          max. resid. fock norm         =  1.196D-03 for orbital    254a         
          irrep a   : virtual orbitals shifted by    0.10014

 ITERATION  ENERGY          1e-ENERGY        2e-ENERGY     RMS[dD(SAO)]   TOL
  12  -4372.2570382089    -25239.203997     11190.980775    0.797D-05 0.503D-14
                            Exc = -480.258533475     Coul =  11671.2393088    
                              N = 503.99904275    
                            current damping = 0.150
 
          Norm of current diis error: 0.22237E-01
          max. resid. norm for Fia-block=  8.089D-04 for orbital    242a         
          max. resid. fock norm         =  1.236D-03 for orbital    135a         
          irrep a   : virtual orbitals shifted by    0.08452

 ITERATION  ENERGY          1e-ENERGY        2e-ENERGY     RMS[dD(SAO)]   TOL
  13  -4372.2570979943    -25239.147548     11190.924266    0.139D-04 0.503D-14
                            Exc = -480.260081214     Coul =  11671.1843474    
                              N = 503.99904381    
                            current damping = 0.200
 
          Norm of current diis error: 0.12497E-01
          max. resid. norm for Fia-block=  6.101D-04 for orbital    251a         
          max. resid. fock norm         =  8.633D-04 for orbital    254a         
          irrep a   : virtual orbitals shifted by    0.09665

 ITERATION  ENERGY          1e-ENERGY        2e-ENERGY     RMS[dD(SAO)]   TOL
  14  -4372.2571400115    -25239.227208     11191.003884    0.594D-05 0.503D-14
                            Exc = -480.258682251     Coul =  11671.2625666    
                              N = 503.99904329    
                            current damping = 0.250
 
          Norm of current diis error: 0.11846E-01
          max. resid. norm for Fia-block=  5.086D-04 for orbital    251a         
          max. resid. fock norm         =  6.468D-04 for orbital    254a         
          irrep a   : virtual orbitals shifted by    0.09790

 ITERATION  ENERGY          1e-ENERGY        2e-ENERGY     RMS[dD(SAO)]   TOL
  15  -4372.2571708535    -25239.248398     11191.025044    0.493D-05 0.503D-14
                            Exc = -480.259347736     Coul =  11671.2843913    
                              N = 503.99904346    
                            current damping = 0.100
 
          Norm of current diis error: 0.10429E-01
          max. resid. norm for Fia-block=  4.608D-04 for orbital    251a         
          max. resid. fock norm         =  5.291D-04 for orbital    254a         
          irrep a   : virtual orbitals shifted by    0.09804
          mo-orthogonalization: Cholesky decomposition

 ITERATION  ENERGY          1e-ENERGY        2e-ENERGY     RMS[dD(SAO)]   TOL
  16  -4372.2571964254    -25239.247466     11191.024086    0.493D-05 0.503D-14
                            Exc = -480.259723769     Coul =  11671.2838100    
                              N = 503.99904363    
                            current damping = 0.150
 
          Norm of current diis error: 0.62883E-02
          max. resid. norm for Fia-block=  4.128D-04 for orbital    251a         
          max. resid. fock norm         =  4.500D-04 for orbital    254a         
          irrep a   : virtual orbitals shifted by    0.09761

 ITERATION  ENERGY          1e-ENERGY        2e-ENERGY     RMS[dD(SAO)]   TOL
  17  -4372.2572142292    -25239.232006     11191.008609    0.424D-05 0.503D-14
                            Exc = -480.260126961     Coul =  11671.2687357    
                              N = 503.99904374    
                            current damping = 0.050
 
          Norm of current diis error: 0.62650E-02
          max. resid. norm for Fia-block=  4.009D-04 for orbital    251a         
          max. resid. fock norm         =  4.491D-04 for orbital    254a         
          irrep a   : virtual orbitals shifted by    0.09788

 ITERATION  ENERGY          1e-ENERGY        2e-ENERGY     RMS[dD(SAO)]   TOL
  18  -4372.2572289777    -25239.242371     11191.018959    0.295D-05 0.503D-14
                            Exc = -480.260360053     Coul =  11671.2793187    
                              N = 503.99904363    
                            current damping = 0.100
 
          Norm of current diis error: 0.44076E-02
          max. resid. norm for Fia-block=  3.909D-04 for orbital    251a         
          max. resid. fock norm         =  4.394D-04 for orbital    254a         
          irrep a   : virtual orbitals shifted by    0.09784

 ITERATION  ENERGY          1e-ENERGY        2e-ENERGY     RMS[dD(SAO)]   TOL
  19  -4372.2572407091    -25239.255874     11191.032450    0.285D-05 0.503D-14
                            Exc = -480.260010065     Coul =  11671.2924598    
                              N = 503.99904346    
                            current damping = 0.050
 
          Norm of current diis error: 0.42134E-02
          max. resid. norm for Fia-block=  3.518D-04 for orbital    251a         
          max. resid. fock norm         =  3.771D-04 for orbital    254a         
          irrep a   : virtual orbitals shifted by    0.09770

 ITERATION  ENERGY          1e-ENERGY        2e-ENERGY     RMS[dD(SAO)]   TOL
  20  -4372.2572505707    -25239.256073     11191.032639    0.270D-05 0.503D-14
                            Exc = -480.260390953     Coul =  11671.2930297    
                              N = 503.99904350    
                            current damping = 0.050
 
          Norm of current diis error: 0.31001E-02
          max. resid. norm for Fia-block=  3.245D-04 for orbital    251a         
          max. resid. fock norm         =  3.509D-04 for orbital    254a         
          irrep a   : virtual orbitals shifted by    0.09761
          mo-orthogonalization: Cholesky decomposition

 ITERATION  ENERGY          1e-ENERGY        2e-ENERGY     RMS[dD(SAO)]   TOL
  21  -4372.2572585502    -25239.256729     11191.033287    0.237D-05 0.503D-14
                            Exc = -480.260571104     Coul =  11671.2938583    
                              N = 503.99904348    
                            current damping = 0.050
 
          Norm of current diis error: 0.31353E-02
          max. resid. norm for Fia-block=  3.238D-04 for orbital    251a         
          max. resid. fock norm         =  3.509D-04 for orbital    254a         
          irrep a   : virtual orbitals shifted by    0.09769

 ITERATION  ENERGY          1e-ENERGY        2e-ENERGY     RMS[dD(SAO)]   TOL
  22  -4372.2572655252    -25239.265262     11191.041813    0.223D-05 0.503D-14
                            Exc = -480.260391048     Coul =  11671.3022043    
                              N = 503.99904334    
                            current damping = 0.050
 
          Norm of current diis error: 0.29631E-02
          max. resid. norm for Fia-block=  2.967D-04 for orbital    251a         
          max. resid. fock norm         =  3.176D-04 for orbital    254a         
          irrep a   : virtual orbitals shifted by    0.09758

 ITERATION  ENERGY          1e-ENERGY        2e-ENERGY     RMS[dD(SAO)]   TOL
  23  -4372.2572714142    -25239.266493     11191.043039    0.202D-05 0.503D-14
                            Exc = -480.260417644     Coul =  11671.3034562    
                              N = 503.99904332    
                            current damping = 0.050
 
          Norm of current diis error: 0.27568E-02
          max. resid. norm for Fia-block=  2.797D-04 for orbital    251a         
          max. resid. fock norm         =  3.021D-04 for orbital    254a         
          irrep a   : virtual orbitals shifted by    0.09753

 ITERATION  ENERGY          1e-ENERGY        2e-ENERGY     RMS[dD(SAO)]   TOL
  24  -4372.2572765301    -25239.271692     11191.048232    0.187D-05 0.503D-14
                            Exc = -480.260753629     Coul =  11671.3089857    
                              N = 503.99904331    
                            current damping = 0.050
 
          Norm of current diis error: 0.25798E-02
          max. resid. norm for Fia-block=  2.622D-04 for orbital    251a         
          max. resid. fock norm         =  2.781D-04 for orbital    254a         
          irrep a   : virtual orbitals shifted by    0.09747

 ITERATION  ENERGY          1e-ENERGY        2e-ENERGY     RMS[dD(SAO)]   TOL
  25  -4372.2572808999    -25239.271597     11191.048133    0.175D-05 0.503D-14
                            Exc = -480.260611403     Coul =  11671.3087440    
                              N = 503.99904326    
                            current damping = 0.100
 
          Norm of current diis error: 0.20591E-02
          max. resid. norm for Fia-block=  2.468D-04 for orbital    251a         
          max. resid. fock norm         =  2.624D-04 for orbital    254a         
          irrep a   : virtual orbitals shifted by    0.09734
          mo-orthogonalization: Cholesky decomposition

 ITERATION  ENERGY          1e-ENERGY        2e-ENERGY     RMS[dD(SAO)]   TOL
  26  -4372.2572846216    -25239.274096     11191.050628    0.162D-05 0.503D-14
                            Exc = -480.260606551     Coul =  11671.3112346    
                              N = 503.99904321    
                            current damping = 0.150
 
          Norm of current diis error: 0.19988E-02
          max. resid. norm for Fia-block=  2.298D-04 for orbital    251a         
          max. resid. fock norm         =  2.459D-04 for orbital    254a         
          irrep a   : virtual orbitals shifted by    0.09716

 ITERATION  ENERGY          1e-ENERGY        2e-ENERGY     RMS[dD(SAO)]   TOL
  27  -4372.2572879046    -25239.275944     11191.052473    0.151D-05 0.503D-14
                            Exc = -480.260794025     Coul =  11671.3132671    
                              N = 503.99904320    
                            current damping = 0.050
 
          Norm of current diis error: 0.18920E-02
          max. resid. norm for Fia-block=  2.217D-04 for orbital    251a         
          max. resid. fock norm         =  2.363D-04 for orbital    254a         
          irrep a   : virtual orbitals shifted by    0.09741

 ITERATION  ENERGY          1e-ENERGY        2e-ENERGY     RMS[dD(SAO)]   TOL
  28  -4372.2572907930    -25239.279287     11191.055813    0.142D-05 0.503D-14
                            Exc = -480.260752853     Coul =  11671.3165661    
                              N = 503.99904313    
                            current damping = 0.050
 
          Norm of current diis error: 0.18385E-02
          max. resid. norm for Fia-block=  2.075D-04 for orbital    251a         
          max. resid. fock norm         =  2.216D-04 for orbital    254a         
          irrep a   : virtual orbitals shifted by    0.09737

 ITERATION  ENERGY          1e-ENERGY        2e-ENERGY     RMS[dD(SAO)]   TOL
  29  -4372.2572933281    -25239.279101     11191.055624    0.133D-05 0.503D-14
                            Exc = -480.260699402     Coul =  11671.3163234    
                              N = 503.99904311    
                            current damping = 0.100
 
          Norm of current diis error: 0.17071E-02
          max. resid. norm for Fia-block=  1.935D-04 for orbital    251a         
          max. resid. fock norm         =  2.070D-04 for orbital    254a         
          irrep a   : virtual orbitals shifted by    0.09720

 ITERATION  ENERGY          1e-ENERGY        2e-ENERGY     RMS[dD(SAO)]   TOL
  30  -4372.2572955389    -25239.281583     11191.058104    0.125D-05 0.503D-14
                            Exc = -480.260904862     Coul =  11671.3190092    
                              N = 503.99904310    
                            current damping = 0.150
 
          Norm of current diis error: 0.15928E-02
          max. resid. norm for Fia-block=  1.848D-04 for orbital    251a         
          max. resid. fock norm         =  1.965D-04 for orbital    254a         
          irrep a   : virtual orbitals shifted by    0.09707
          mo-orthogonalization: Cholesky decomposition

 ITERATION  ENERGY          1e-ENERGY        2e-ENERGY     RMS[dD(SAO)]   TOL
  31  -4372.2572974833    -25239.283176     11191.059695    0.117D-05 0.503D-14
                            Exc = -480.260807163     Coul =  11671.3205023    
                              N = 503.99904306    
                            current damping = 0.050
 
          Norm of current diis error: 0.14630E-02
          max. resid. norm for Fia-block=  1.733D-04 for orbital    251a         
          max. resid. fock norm         =  1.849D-04 for orbital    254a         
          irrep a   : virtual orbitals shifted by    0.09730

 ITERATION  ENERGY          1e-ENERGY        2e-ENERGY     RMS[dD(SAO)]   TOL
  32  -4372.2572991959    -25239.283559     11191.060076    0.110D-05 0.503D-14
                            Exc = -480.260826378     Coul =  11671.3209024    
                              N = 503.99904304    
                            current damping = 0.050
 
          Norm of current diis error: 0.14154E-02
          max. resid. norm for Fia-block=  1.630D-04 for orbital    251a         
          max. resid. fock norm         =  1.746D-04 for orbital    254a         
          irrep a   : virtual orbitals shifted by    0.09727

 ITERATION  ENERGY          1e-ENERGY        2e-ENERGY     RMS[dD(SAO)]   TOL
  33  -4372.2573007158    -25239.285246     11191.061762    0.103D-05 0.503D-14
                            Exc = -480.260933639     Coul =  11671.3226957    
                              N = 503.99904303    
                            current damping = 0.050
 
          Norm of current diis error: 0.12907E-02
          max. resid. norm for Fia-block=  1.559D-04 for orbital    251a         
          max. resid. fock norm         =  1.652D-04 for orbital    254a         
          irrep a   : virtual orbitals shifted by    0.09727

 ITERATION  ENERGY          1e-ENERGY        2e-ENERGY     RMS[dD(SAO)]   TOL
  34  -4372.2573020492    -25239.286944     11191.063458    0.983D-06 0.503D-14
                            Exc = -480.260874195     Coul =  11671.3243324    
                              N = 503.99904299    
                            current damping = 0.050
 
          Norm of current diis error: 0.12105E-02
          max. resid. norm for Fia-block=  1.449D-04 for orbital    251a         
          max. resid. fock norm         =  1.550D-04 for orbital    254a         
          irrep a   : virtual orbitals shifted by    0.09724

 ITERATION  ENERGY          1e-ENERGY        2e-ENERGY     RMS[dD(SAO)]   TOL
  35  -4372.2573032284    -25239.286398     11191.062911    0.916D-06 0.503D-14
                            Exc = -480.260901216     Coul =  11671.3238122    
                              N = 503.99904298    
                            current damping = 0.100
 
          Norm of current diis error: 0.11725E-02
          max. resid. norm for Fia-block=  1.383D-04 for orbital    251a         
          max. resid. fock norm         =  1.479D-04 for orbital    254a         
          irrep a   : virtual orbitals shifted by    0.09710
          mo-orthogonalization: Cholesky decomposition

 ITERATION  ENERGY          1e-ENERGY        2e-ENERGY     RMS[dD(SAO)]   TOL
  36  -4372.2573042764    -25239.288857     11191.065369    0.857D-06 0.503D-14
                            Exc = -480.260980517     Coul =  11671.3263498    
                              N = 503.99904296    
                            current damping = 0.150
 
          Norm of current diis error: 0.10925E-02
          max. resid. norm for Fia-block=  1.305D-04 for orbital    251a         
          max. resid. fock norm         =  1.389D-04 for orbital    254a         
          irrep a   : virtual orbitals shifted by    0.09695

 ITERATION  ENERGY          1e-ENERGY        2e-ENERGY     RMS[dD(SAO)]   TOL
  37  -4372.2573051978    -25239.289245     11191.065756    0.815D-06 0.503D-14
                            Exc = -480.260917646     Coul =  11671.3266741    
                              N = 503.99904294    
                            current damping = 0.050
 
          Norm of current diis error: 0.99865E-03
          max. resid. norm for Fia-block=  1.217D-04 for orbital    251a         
          max. resid. fock norm         =  1.302D-04 for orbital    254a         
          irrep a   : virtual orbitals shifted by    0.09719

 ITERATION  ENERGY          1e-ENERGY        2e-ENERGY     RMS[dD(SAO)]   TOL
  38  -4372.2573060094    -25239.289510     11191.066021    0.768D-06 0.503D-14
                            Exc = -480.260992228     Coul =  11671.3270129    
                              N = 503.99904293    
                            current damping = 0.050
 
          Norm of current diis error: 0.98248E-03
          max. resid. norm for Fia-block=  1.167D-04 for orbital    251a         
          max. resid. fock norm         =  1.245D-04 for orbital    254a         
          irrep a   : virtual orbitals shifted by    0.09719

 ITERATION  ENERGY          1e-ENERGY        2e-ENERGY     RMS[dD(SAO)]   TOL
  39  -4372.2573067349    -25239.290944     11191.067454    0.721D-06 0.503D-14
                            Exc = -480.260977039     Coul =  11671.3284307    
                              N = 503.99904291    
                            current damping = 0.050
 
          Norm of current diis error: 0.91197E-03
          max. resid. norm for Fia-block=  1.095D-04 for orbital    251a         
          max. resid. fock norm         =  1.168D-04 for orbital    254a         
          irrep a   : virtual orbitals shifted by    0.09718

 ITERATION  ENERGY          1e-ENERGY        2e-ENERGY     RMS[dD(SAO)]   TOL
  40  -4372.2573073747    -25239.291371     11191.067881    0.682D-06 0.503D-14
                            Exc = -480.260983046     Coul =  11671.3288637    
                              N = 503.99904290    
                            current damping = 0.050
 
          Norm of current diis error: 0.86110E-03
          max. resid. norm for Fia-block=  1.028D-04 for orbital    251a         
          max. resid. fock norm         =  1.100D-04 for orbital    254a         
          irrep a   : virtual orbitals shifted by    0.09716
          mo-orthogonalization: Cholesky decomposition

 ITERATION  ENERGY          1e-ENERGY        2e-ENERGY     RMS[dD(SAO)]   TOL
  41  -4372.2573079406    -25239.291666     11191.068175    0.641D-06 0.503D-14
                            Exc = -480.261013459     Coul =  11671.3291887    
                              N = 503.99904289    
                            current damping = 0.050
 
          Norm of current diis error: 0.80101E-03
          max. resid. norm for Fia-block=  9.773D-05 for orbital    251a         
          max. resid. fock norm         =  1.041D-04 for orbital    254a         
          irrep a   : virtual orbitals shifted by    0.09716

 ITERATION  ENERGY          1e-ENERGY        2e-ENERGY     RMS[dD(SAO)]   TOL
  42  -4372.2573084415    -25239.292850     11191.069358    0.605D-06 0.503D-14
                            Exc = -480.261017274     Coul =  11671.3303756    
                              N = 503.99904287    
                            current damping = 0.050
 
          Norm of current diis error: 0.74291E-03
          max. resid. norm for Fia-block=  9.172D-05 for orbital    251a         
          max. resid. fock norm         =  9.816D-05 for orbital    254a         
          irrep a   : virtual orbitals shifted by    0.09715

 ITERATION  ENERGY          1e-ENERGY        2e-ENERGY     RMS[dD(SAO)]   TOL
  43  -4372.2573088847    -25239.292587     11191.069094    0.569D-06 0.503D-14
                            Exc = -480.261001353     Coul =  11671.3300957    
                              N = 503.99904287    
                            current damping = 0.100
 
          Norm of current diis error: 0.72533E-03
          max. resid. norm for Fia-block=  8.723D-05 for orbital    251a         
          max. resid. fock norm         =  9.347D-05 for orbital    254a         
          irrep a   : virtual orbitals shifted by    0.09700

 ITERATION  ENERGY          1e-ENERGY        2e-ENERGY     RMS[dD(SAO)]   TOL
  44  -4372.2573092798    -25239.293847     11191.070354    0.535D-06 0.503D-14
                            Exc = -480.261057883     Coul =  11671.3314124    
                              N = 503.99904286    
                            current damping = 0.150
 
          Norm of current diis error: 0.67523E-03
          max. resid. norm for Fia-block=  8.197D-05 for orbital    251a         
          max. resid. fock norm         =  8.749D-05 for orbital    254a         
          irrep a   : virtual orbitals shifted by    0.09686

 ITERATION  ENERGY          1e-ENERGY        2e-ENERGY     RMS[dD(SAO)]   TOL
  45  -4372.2573096287    -25239.293957     11191.070464    0.508D-06 0.503D-14
                            Exc = -480.261032679     Coul =  11671.3314968    
                              N = 503.99904285    
                            current damping = 0.050
 
          Norm of current diis error: 0.60126E-03
          max. resid. norm for Fia-block=  7.684D-05 for orbital    251a         
          max. resid. fock norm         =  8.218D-05 for orbital    254a         
          irrep a   : virtual orbitals shifted by    0.09712
          mo-orthogonalization: Cholesky decomposition

 ITERATION  ENERGY          1e-ENERGY        2e-ENERGY     RMS[dD(SAO)]   TOL
  46  -4372.2573099353    -25239.294117     11191.070624    0.480D-06 0.503D-14
                            Exc = -480.261051319     Coul =  11671.3316753    
                              N = 503.99904284    
                            current damping = 0.050
 
          Norm of current diis error: 0.61216E-03
          max. resid. norm for Fia-block=  7.418D-05 for orbital    251a         
          max. resid. fock norm         =  7.935D-05 for orbital    254a         
          irrep a   : virtual orbitals shifted by    0.09712

 ITERATION  ENERGY          1e-ENERGY        2e-ENERGY     RMS[dD(SAO)]   TOL
  47  -4372.2573102128    -25239.295153     11191.071660    0.452D-06 0.503D-14
                            Exc = -480.261057847     Coul =  11671.3327177    
                              N = 503.99904283    
                            current damping = 0.050
 
          Norm of current diis error: 0.57378E-03
          max. resid. norm for Fia-block=  6.881D-05 for orbital    251a         
          max. resid. fock norm         =  7.371D-05 for orbital    254a         
          irrep a   : virtual orbitals shifted by    0.09710

 ITERATION  ENERGY          1e-ENERGY        2e-ENERGY     RMS[dD(SAO)]   TOL
  48  -4372.2573104573    -25239.295083     11191.071590    0.429D-06 0.503D-14
                            Exc = -480.261071940     Coul =  11671.3326615    
                              N = 503.99904283    
                            current damping = 0.100
 
          Norm of current diis error: 0.50991E-03
          max. resid. norm for Fia-block=  6.513D-05 for orbital    251a         
          max. resid. fock norm         =  6.952D-05 for orbital    254a         
          irrep a   : virtual orbitals shifted by    0.09696

 ITERATION  ENERGY          1e-ENERGY        2e-ENERGY     RMS[dD(SAO)]   TOL
  49  -4372.2573106726    -25239.295349     11191.071855    0.404D-06 0.503D-14
                            Exc = -480.261057866     Coul =  11671.3329128    
                              N = 503.99904282    
                            current damping = 0.150
 
          Norm of current diis error: 0.49291E-03
          max. resid. norm for Fia-block=  6.199D-05 for orbital    251a         
          max. resid. fock norm         =  6.646D-05 for orbital    254a         
          irrep a   : virtual orbitals shifted by    0.09682

 ITERATION  ENERGY          1e-ENERGY        2e-ENERGY     RMS[dD(SAO)]   TOL
  50  -4372.2573108647    -25239.296207     11191.072712    0.377D-06 0.503D-14
                            Exc = -480.261084383     Coul =  11671.3337968    
                              N = 503.99904281    
                            current damping = 0.050
 
          Norm of current diis error: 0.46559E-03
          max. resid. norm for Fia-block=  5.784D-05 for orbital    251a         
          max. resid. fock norm         =  6.222D-05 for orbital    254a         
          irrep a   : virtual orbitals shifted by    0.09709
          mo-orthogonalization: Cholesky decomposition

 ITERATION  ENERGY          1e-ENERGY        2e-ENERGY     RMS[dD(SAO)]   TOL
  51  -4372.2573110362    -25239.295793     11191.072298    0.360D-06 0.503D-14
                            Exc = -480.261080147     Coul =  11671.3333784    
                              N = 503.99904281    
                            current damping = 0.100
 
          Norm of current diis error: 0.44237E-03
          max. resid. norm for Fia-block=  5.546D-05 for orbital    251a         
          max. resid. fock norm         =  5.930D-05 for orbital    254a         
          irrep a   : virtual orbitals shifted by    0.09695

 ITERATION  ENERGY          1e-ENERGY        2e-ENERGY     RMS[dD(SAO)]   TOL
  52  -4372.2573111882    -25239.296593     11191.073099    0.341D-06 0.503D-14
                            Exc = -480.261089853     Coul =  11671.3341888    
                              N = 503.99904281    
                            current damping = 0.150
 
          Norm of current diis error: 0.41538E-03
          max. resid. norm for Fia-block=  5.198D-05 for orbital    251a         
          max. resid. fock norm         =  5.578D-05 for orbital    254a         
          irrep a   : virtual orbitals shifted by    0.09680

 ITERATION  ENERGY          1e-ENERGY        2e-ENERGY     RMS[dD(SAO)]   TOL
  53  -4372.2573113237    -25239.296798     11191.073303    0.319D-06 0.503D-14
                            Exc = -480.261087349     Coul =  11671.3343906    
                              N = 503.99904280    
                            current damping = 0.050
 
          Norm of current diis error: 0.38090E-03
          max. resid. norm for Fia-block=  4.845D-05 for orbital    251a         
          max. resid. fock norm         =  5.236D-05 for orbital    254a         
          irrep a   : virtual orbitals shifted by    0.09707

 ITERATION  ENERGY          1e-ENERGY        2e-ENERGY     RMS[dD(SAO)]   TOL
  54  -4372.2573114425    -25239.296590     11191.073095    0.303D-06 0.503D-14
                            Exc = -480.261107972     Coul =  11671.3342034    
                              N = 503.99904280    
                            current damping = 0.100
 
          Norm of current diis error: 0.38170E-03
          max. resid. norm for Fia-block=  4.728D-05 for orbital    251a         
          max. resid. fock norm         =  5.054D-05 for orbital    254a         
          irrep a   : virtual orbitals shifted by    0.09694

 ITERATION  ENERGY          1e-ENERGY        2e-ENERGY     RMS[dD(SAO)]   TOL
  55  -4372.2573115508    -25239.297362     11191.073868    0.290D-06 0.503D-14
                            Exc = -480.261093697     Coul =  11671.3349612    
                              N = 503.99904279    
                            current damping = 0.150
 
          Norm of current diis error: 0.34694E-03
          max. resid. norm for Fia-block=  4.358D-05 for orbital    251a         
          max. resid. fock norm         =  4.689D-05 for orbital    254a         
          irrep a   : virtual orbitals shifted by    0.09678
          mo-orthogonalization: Cholesky decomposition

 ITERATION  ENERGY          1e-ENERGY        2e-ENERGY     RMS[dD(SAO)]   TOL
  56  -4372.2573116457    -25239.297374     11191.073879    0.271D-06 0.503D-14
                            Exc = -480.261107555     Coul =  11671.3349868    
                              N = 503.99904279    
                            current damping = 0.050
 
          Norm of current diis error: 0.31664E-03
          max. resid. norm for Fia-block=  4.106D-05 for orbital    251a         
          max. resid. fock norm         =  4.435D-05 for orbital    254a         
          irrep a   : virtual orbitals shifted by    0.09706

 ITERATION  ENERGY          1e-ENERGY        2e-ENERGY     RMS[dD(SAO)]   TOL
  57  -4372.2573117297    -25239.297286     11191.073791    0.254D-06 0.503D-14
                            Exc = -480.261110301     Coul =  11671.3349010    
                              N = 503.99904279    
                            current damping = 0.100
 
          Norm of current diis error: 0.32354E-03
          max. resid. norm for Fia-block=  3.996D-05 for orbital    251a         
          max. resid. fock norm         =  4.285D-05 for orbital    254a         
          irrep a   : virtual orbitals shifted by    0.09692

 ITERATION  ENERGY          1e-ENERGY        2e-ENERGY     RMS[dD(SAO)]   TOL
  58  -4372.2573118063    -25239.298009     11191.074514    0.244D-06 0.503D-14
                            Exc = -480.261110105     Coul =  11671.3356239    
                              N = 503.99904278    
                            current damping = 0.150
 
          Norm of current diis error: 0.29337E-03
          max. resid. norm for Fia-block=  3.681D-05 for orbital    251a         
          max. resid. fock norm         =  3.970D-05 for orbital    254a         
          irrep a   : virtual orbitals shifted by    0.09677

 ITERATION  ENERGY          1e-ENERGY        2e-ENERGY     RMS[dD(SAO)]   TOL
  59  -4372.2573118735    -25239.297834     11191.074339    0.229D-06 0.503D-14
                            Exc = -480.261113817     Coul =  11671.3354530    
                              N = 503.99904278    
                            current damping = 0.200
 
          Norm of current diis error: 0.26865E-03
          max. resid. norm for Fia-block=  3.491D-05 for orbital    251a         
          max. resid. fock norm         =  3.775D-05 for orbital    254a         
          irrep a   : virtual orbitals shifted by    0.09663

 ITERATION  ENERGY          1e-ENERGY        2e-ENERGY     RMS[dD(SAO)]   TOL
  60  -4372.2573119337    -25239.298037     11191.074542    0.214D-06 0.503D-14
                            Exc = -480.261125831     Coul =  11671.3356676    
                              N = 503.99904278    
                            current damping = 0.250
 
          Norm of current diis error: 0.26532E-03
          max. resid. norm for Fia-block=  3.357D-05 for orbital    251a         
          max. resid. fock norm         =  3.610D-05 for orbital    254a         
          irrep a   : virtual orbitals shifted by    0.09649
          mo-orthogonalization: Cholesky decomposition

 ITERATION  ENERGY          1e-ENERGY        2e-ENERGY     RMS[dD(SAO)]   TOL
  61  -4372.2573119871    -25239.298410     11191.074915    0.205D-06 0.503D-14
                            Exc = -480.261114698     Coul =  11671.3360298    
                              N = 503.99904278    
                            current damping = 0.100
 
          Norm of current diis error: 0.24012E-03
          max. resid. norm for Fia-block=  3.083D-05 for orbital    251a         
          max. resid. fock norm         =  3.350D-05 for orbital    254a         
          irrep a   : virtual orbitals shifted by    0.09690

 ITERATION  ENERGY          1e-ENERGY        2e-ENERGY     RMS[dD(SAO)]   TOL
  62  -4372.2573120346    -25239.298231     11191.074736    0.195D-06 0.503D-14
                            Exc = -480.261130784     Coul =  11671.3358667    
                              N = 503.99904278    
                            current damping = 0.150
 
          Norm of current diis error: 0.23659E-03
          max. resid. norm for Fia-block=  2.992D-05 for orbital    251a         
          max. resid. fock norm         =  3.227D-05 for orbital    254a         
          irrep a   : virtual orbitals shifted by    0.09676

 ITERATION  ENERGY          1e-ENERGY        2e-ENERGY     RMS[dD(SAO)]   TOL
  63  -4372.2573120776    -25239.298512     11191.075016    0.182D-06 0.503D-14
                            Exc = -480.261125995     Coul =  11671.3361422    
                              N = 503.99904277    
                            current damping = 0.200
 
          Norm of current diis error: 0.22047E-03
          max. resid. norm for Fia-block=  2.820D-05 for orbital    251a         
          max. resid. fock norm         =  3.040D-05 for orbital    254a         
          irrep a   : virtual orbitals shifted by    0.09662

 ITERATION  ENERGY          1e-ENERGY        2e-ENERGY     RMS[dD(SAO)]   TOL
  64  -4372.2573121153    -25239.298793     11191.075297    0.172D-06 0.503D-14
                            Exc = -480.261125333     Coul =  11671.3364228    
                              N = 503.99904277    
                            current damping = 0.050
 
          Norm of current diis error: 0.20314E-03
          max. resid. norm for Fia-block=  2.608D-05 for orbital    251a         
          max. resid. fock norm         =  2.848D-05 for orbital    254a         
          irrep a   : virtual orbitals shifted by    0.09703

 ITERATION  ENERGY          1e-ENERGY        2e-ENERGY     RMS[dD(SAO)]   TOL
  65  -4372.2573121497    -25239.298574     11191.075079    0.165D-06 0.503D-14
                            Exc = -480.261134455     Coul =  11671.3362134    
                              N = 503.99904277    
                            current damping = 0.100
 
          Norm of current diis error: 0.20280E-03
          max. resid. norm for Fia-block=  2.537D-05 for orbital    251a         
          max. resid. fock norm         =  2.742D-05 for orbital    254a         
          irrep a   : virtual orbitals shifted by    0.09689
          mo-orthogonalization: Cholesky decomposition

 ITERATION  ENERGY          1e-ENERGY        2e-ENERGY     RMS[dD(SAO)]   TOL
  66  -4372.2573121800    -25239.298923     11191.075428    0.155D-06 0.503D-14
                            Exc = -480.261136059     Coul =  11671.3365638    
                              N = 503.99904277    
                            current damping = 0.150
 
          Norm of current diis error: 0.18668E-03
          max. resid. norm for Fia-block=  2.389D-05 for orbital    251a         
          max. resid. fock norm         =  2.580D-05 for orbital    254a         
          irrep a   : virtual orbitals shifted by    0.09675

 ITERATION  ENERGY          1e-ENERGY        2e-ENERGY     RMS[dD(SAO)]   TOL
  67  -4372.2573122067    -25239.299058     11191.075562    0.147D-06 0.503D-14
                            Exc = -480.261127552     Coul =  11671.3366900    
                              N = 503.99904277    
                            current damping = 0.050
 
          Norm of current diis error: 0.17406E-03
          max. resid. norm for Fia-block=  2.212D-05 for orbital    251a         
          max. resid. fock norm         =  2.426D-05 for orbital    254a         
          irrep a   : virtual orbitals shifted by    0.09703

 ITERATION  ENERGY          1e-ENERGY        2e-ENERGY     RMS[dD(SAO)]   TOL
  68  -4372.2573122311    -25239.298983     11191.075487    0.139D-06 0.503D-14
                            Exc = -480.261144893     Coul =  11671.3366323    
                              N = 503.99904277    
                            current damping = 0.100
 
          Norm of current diis error: 0.16953E-03
          max. resid. norm for Fia-block=  2.145D-05 for orbital    251a         
          max. resid. fock norm         =  2.323D-05 for orbital    254a         
          irrep a   : virtual orbitals shifted by    0.09689

 ITERATION  ENERGY          1e-ENERGY        2e-ENERGY     RMS[dD(SAO)]   TOL
  69  -4372.2573122533    -25239.299194     11191.075699    0.131D-06 0.503D-14
                            Exc = -480.261137590     Coul =  11671.3368361    
                              N = 503.99904277    
                            current damping = 0.150
 
          Norm of current diis error: 0.15580E-03
          max. resid. norm for Fia-block=  2.012D-05 for orbital    251a         
          max. resid. fock norm         =  2.185D-05 for orbital    254a         
          irrep a   : virtual orbitals shifted by    0.09674

 ITERATION  ENERGY          1e-ENERGY        2e-ENERGY     RMS[dD(SAO)]   TOL
  70  -4372.2573122723    -25239.299302     11191.075806    0.124D-06 0.503D-14
                            Exc = -480.261136842     Coul =  11671.3369431    
                              N = 503.99904276    
                            current damping = 0.050
 
          Norm of current diis error: 0.14745E-03
          max. resid. norm for Fia-block=  1.877D-05 for orbital    251a         
          max. resid. fock norm         =  2.059D-05 for orbital    254a         
          irrep a   : virtual orbitals shifted by    0.09702
          mo-orthogonalization: Cholesky decomposition

 ITERATION  ENERGY          1e-ENERGY        2e-ENERGY     RMS[dD(SAO)]   TOL
  71  -4372.2573122898    -25239.299233     11191.075738    0.117D-06 0.503D-14
                            Exc = -480.261144976     Coul =  11671.3368827    
                              N = 503.99904277    
                            current damping = 0.100
 
          Norm of current diis error: 0.14175E-03
          max. resid. norm for Fia-block=  1.814D-05 for orbital    251a         
          max. resid. fock norm         =  1.971D-05 for orbital    254a         
          irrep a   : virtual orbitals shifted by    0.09688

 ITERATION  ENERGY          1e-ENERGY        2e-ENERGY     RMS[dD(SAO)]   TOL
  72  -4372.2573123052    -25239.299475     11191.075979    0.111D-06 0.503D-14
                            Exc = -480.261144182     Coul =  11671.3371233    
                              N = 503.99904276    
                            current damping = 0.150
 
          Norm of current diis error: 0.13304E-03
          max. resid. norm for Fia-block=  1.701D-05 for orbital    251a         
          max. resid. fock norm         =  1.857D-05 for orbital    254a         
          irrep a   : virtual orbitals shifted by    0.09674

 ITERATION  ENERGY          1e-ENERGY        2e-ENERGY     RMS[dD(SAO)]   TOL
  73  -4372.2573123187    -25239.299478     11191.075982    0.104D-06 0.503D-14
                            Exc = -480.261139955     Coul =  11671.3371222    
                              N = 503.99904276    
                            current damping = 0.050
 
          Norm of current diis error: 0.12407E-03
          max. resid. norm for Fia-block=  1.591D-05 for orbital    251a         
          max. resid. fock norm         =  1.751D-05 for orbital    254a         
          irrep a   : virtual orbitals shifted by    0.09702

 DENSITY CONVERGED !


 ITERATION  ENERGY          1e-ENERGY        2e-ENERGY     RMS[dD(SAO)]   TOL
  74  -4372.2573123314    -25239.299491     11191.075995    0.991D-07 0.503D-14
                            Exc = -480.261151367     Coul =  11671.3371468    
                              N = 503.99904276    
                            current damping = 0.050
 
          Norm of current diis error: 0.12120E-03
          max. resid. norm for Fia-block=  1.542D-05 for orbital    251a         
          max. resid. fock norm         =  1.678D-05 for orbital    254a         
          irrep a   : virtual orbitals shifted by    0.09702

 DENSITY CONVERGED !


 ITERATION  ENERGY          1e-ENERGY        2e-ENERGY     RMS[dD(SAO)]   TOL
  75  -4372.2573123422    -25239.299653     11191.076157    0.946D-07 0.503D-14
                            Exc = -480.261144394     Coul =  11671.3373016    
                              N = 503.99904276    
                            current damping = 0.050
 
          Norm of current diis error: 0.11302E-03
          max. resid. norm for Fia-block=  1.436D-05 for orbital    251a         
          max. resid. fock norm         =  1.576D-05 for orbital    254a         
          irrep a   : virtual orbitals shifted by    0.09702
          mo-orthogonalization: Cholesky decomposition

 DENSITY CONVERGED !


 ITERATION  ENERGY          1e-ENERGY        2e-ENERGY     RMS[dD(SAO)]   TOL
  76  -4372.2573123523    -25239.299661     11191.076165    0.888D-07 0.503D-14
                            Exc = -480.261147009     Coul =  11671.3373120    
                              N = 503.99904276    
                            current damping = 0.050
 
          Norm of current diis error: 0.10627E-03
          max. resid. norm for Fia-block=  1.355D-05 for orbital    251a         
          max. resid. fock norm         =  1.492D-05 for orbital    254a         
          irrep a   : virtual orbitals shifted by    0.09702

 DENSITY CONVERGED !


 ITERATION  ENERGY          1e-ENERGY        2e-ENERGY     RMS[dD(SAO)]   TOL
  77  -4372.2573123617    -25239.299671     11191.076175    0.838D-07 0.503D-14
                            Exc = -480.261151246     Coul =  11671.3373267    
                              N = 503.99904276    
                            current damping = 0.050
 
          Norm of current diis error: 0.10194E-03
          max. resid. norm for Fia-block=  1.303D-05 for orbital    251a         
          max. resid. fock norm         =  1.423D-05 for orbital    254a         
          irrep a   : virtual orbitals shifted by    0.09702

 DENSITY CONVERGED !


 ITERATION  ENERGY          1e-ENERGY        2e-ENERGY     RMS[dD(SAO)]   TOL
  78  -4372.2573123702    -25239.299829     11191.076334    0.800D-07 0.503D-14
                            Exc = -480.261149121     Coul =  11671.3374827    
                              N = 503.99904276    
                            current damping = 0.050
 
          Norm of current diis error: 0.95446E-04
          max. resid. norm for Fia-block=  1.216D-05 for orbital    251a         
          max. resid. fock norm         =  1.340D-05 for orbital    254a         
          irrep a   : virtual orbitals shifted by    0.09701

 DENSITY CONVERGED !


 ITERATION  ENERGY          1e-ENERGY        2e-ENERGY     RMS[dD(SAO)]   TOL
  79  -4372.2573123763    -25239.299786     11191.076291    0.753D-07 0.503D-14
                            Exc = -480.261148883     Coul =  11671.3374395    
                              N = 503.99904276    
                            current damping = 0.100
 
          Norm of current diis error: 0.90398E-04
          max. resid. norm for Fia-block=  1.153D-05 for orbital    251a         
          max. resid. fock norm         =  1.273D-05 for orbital    254a         
          irrep a   : virtual orbitals shifted by    0.09687

 DENSITY CONVERGED !


 ITERATION  ENERGY          1e-ENERGY        2e-ENERGY     RMS[dD(SAO)]   TOL
  80  -4372.2573123828    -25239.299860     11191.076364    0.709D-07 0.503D-14
                            Exc = -480.261155090     Coul =  11671.3375191    
                              N = 503.99904276    
                            current damping = 0.150
 
          Norm of current diis error: 0.86308E-04
          max. resid. norm for Fia-block=  1.104D-05 for orbital    251a         
          max. resid. fock norm         =  1.210D-05 for orbital    254a         
          irrep a   : virtual orbitals shifted by    0.09673
          mo-orthogonalization: Cholesky decomposition

 DENSITY CONVERGED !


 ITERATION  ENERGY          1e-ENERGY        2e-ENERGY     RMS[dD(SAO)]   TOL
  81  -4372.2573123886    -25239.299942     11191.076446    0.679D-07 0.503D-14
                            Exc = -480.261150291     Coul =  11671.3375963    
                              N = 503.99904276    
                            current damping = 0.050
 
          Norm of current diis error: 0.79182E-04
          max. resid. norm for Fia-block=  1.026D-05 for orbital    251a         
          max. resid. fock norm         =  1.137D-05 for orbital    254a         
          irrep a   : virtual orbitals shifted by    0.09701

 DENSITY CONVERGED !


 ITERATION  ENERGY          1e-ENERGY        2e-ENERGY     RMS[dD(SAO)]   TOL
  82  -4372.2573123938    -25239.299920     11191.076425    0.641D-07 0.503D-14
                            Exc = -480.261154124     Coul =  11671.3375789    
                              N = 503.99904276    
                            current damping = 0.100
 
          Norm of current diis error: 0.77793E-04
          max. resid. norm for Fia-block=  9.864D-06 for orbital    251a         
          max. resid. fock norm         =  1.088D-05 for orbital    254a         
          irrep a   : virtual orbitals shifted by    0.09687

 DENSITY CONVERGED !


 ITERATION  ENERGY          1e-ENERGY        2e-ENERGY     RMS[dD(SAO)]   TOL
  83  -4372.2573123986    -25239.299986     11191.076491    0.604D-07 0.503D-14
                            Exc = -480.261154494     Coul =  11671.3376451    
                              N = 503.99904276    
                            current damping = 0.150
 
          Norm of current diis error: 0.72465E-04
          max. resid. norm for Fia-block=  9.317D-06 for orbital    251a         
          max. resid. fock norm         =  1.026D-05 for orbital    254a         
          irrep a   : virtual orbitals shifted by    0.09672

 DENSITY CONVERGED !


 ITERATION  ENERGY          1e-ENERGY        2e-ENERGY     RMS[dD(SAO)]   TOL
  84  -4372.2573124024    -25239.300055     11191.076559    0.575D-07 0.503D-14
                            Exc = -480.261153897     Coul =  11671.3377127    
                              N = 503.99904276    
                            current damping = 0.050
 
          Norm of current diis error: 0.66971E-04
          max. resid. norm for Fia-block=  8.716D-06 for orbital    251a         
          max. resid. fock norm         =  9.683D-06 for orbital    254a         
          irrep a   : virtual orbitals shifted by    0.09701

 DENSITY CONVERGED !


 ITERATION  ENERGY          1e-ENERGY        2e-ENERGY     RMS[dD(SAO)]   TOL
  85  -4372.2573124064    -25239.300017     11191.076521    0.544D-07 0.503D-14
                            Exc = -480.261155133     Coul =  11671.3376763    
                              N = 503.99904276    
                            current damping = 0.100
 
          Norm of current diis error: 0.66573E-04
          max. resid. norm for Fia-block=  8.407D-06 for orbital    251a         
          max. resid. fock norm         =  9.289D-06 for orbital    254a         
          irrep a   : virtual orbitals shifted by    0.09687
          mo-orthogonalization: Cholesky decomposition

 DENSITY CONVERGED !


 ITERATION  ENERGY          1e-ENERGY        2e-ENERGY     RMS[dD(SAO)]   TOL
  86  -4372.2573124100    -25239.300111     11191.076615    0.515D-07 0.503D-14
                            Exc = -480.261156741     Coul =  11671.3377716    
                              N = 503.99904276    
                            current damping = 0.150
 
          Norm of current diis error: 0.61522E-04
          max. resid. norm for Fia-block=  7.897D-06 for orbital    251a         
          max. resid. fock norm         =  8.735D-06 for orbital    254a         
          irrep a   : virtual orbitals shifted by    0.09672

 DENSITY CONVERGED !


 ITERATION  ENERGY          1e-ENERGY        2e-ENERGY     RMS[dD(SAO)]   TOL
  87  -4372.2573124128    -25239.300130     11191.076635    0.489D-07 0.503D-14
                            Exc = -480.261154843     Coul =  11671.3377894    
                              N = 503.99904276    
                            current damping = 0.050
 
          Norm of current diis error: 0.57006E-04
          max. resid. norm for Fia-block=  7.416D-06 for orbital    251a         
          max. resid. fock norm         =  8.273D-06 for orbital    254a         
          irrep a   : virtual orbitals shifted by    0.09701

 ENERGY & DENSITY CONVERGED !


 ITERATION  ENERGY          1e-ENERGY        2e-ENERGY     RMS[dD(SAO)]   TOL
  88  -4372.2573759931    -25239.300133     11191.076573    0.462D-07 0.503D-14
                            Exc = -480.261222173     Coul =  11671.3377955    
                              N = 504.00005266    
                            current damping = 0.100
 
          Norm of current diis error: 0.57177E-04
          max. resid. norm for Fia-block=  7.166D-06 for orbital    251a         
          max. resid. fock norm         =  7.932D-06 for orbital    254a         

 End of SCF iterations

   convergence criteria satisfied after   88 iterations


                  ------------------------------------------ 
                 |  total energy      =  -4372.25737599313  |
                  ------------------------------------------ 
                 :  kinetic energy    =   4358.03092858884  :
                 :  potential energy  =  -8730.28830458197  :
                 :  virial theorem    =      1.99674620083  :
                 :  wavefunction norm =      1.00000000000  :
                  .......................................... 


 <geterg> : there is no data group $energy 


 <skperg> : $end is missing 


 orbitals $scfmo  will be written to file mos

    irrep                248a        249a        250a        251a        252a   
 eigenvalues H         -0.16752    -0.16679    -0.16678    -0.16607    -0.16600
            eV          -4.5585     -4.5387     -4.5384     -4.5190     -4.5172
 occupation              2.0000      2.0000      2.0000      2.0000      2.0000 

    irrep                253a        254a        255a        256a        257a   
 eigenvalues H         -0.16315    -0.16258    -0.14856    -0.14735    -0.11970
            eV          -4.4396     -4.4242     -4.0425     -4.0096     -3.2571
 
 
 ! grave: sending quit signal to master process
 
 
 
 
 ==============================================================================
                           electrostatic moments
 ==============================================================================

 reference point for electrostatic moments:    0.00000   0.00000   0.00000

 
              nuc           elec       ->  total
 ------------------------------------------------------------------------------
                          charge      
 ------------------------------------------------------------------------------
         504.000000    -504.000000       0.000000
 
 ------------------------------------------------------------------------------
                       dipole moment  
 ------------------------------------------------------------------------------
   x      -0.685611       0.714721       0.029109
   y      -1.278381       1.334109       0.055729
   z      -0.346446       0.356792       0.010346
 
   | dipole moment | =     0.0637 a.u. =     0.1620 debye 
 
 ------------------------------------------------------------------------------
                     quadrupole moment
 ------------------------------------------------------------------------------
  xx    6741.099436   -7025.128607    -284.029171
  yy   22324.782518  -22731.547676    -406.765158
  zz   81018.791058  -81681.525937    -662.734879
  xy    6837.024695   -6791.116218      45.908477
  xz   -7147.198374    6950.916761    -196.281613
  yz  -17266.331323   17443.535180     177.203857
 
     1/3  trace=    -451.176402
     anisotropy=     572.806352
 
 ==============================================================================
 

    ridft profiling
  --------------------------------------------------------------------
             module   cpu total (s)       %  wall total (s)       %

               RIDFT         24193.5  100.00         24189.6  100.00
         Ridft_b_scf           184.0    0.76           184.0    0.76
        b_scf_prelim             0.0    0.00             0.0    0.00
        b_scf_molinp             0.0    0.00             0.0    0.00
         b_scf_init0             0.0    0.00             0.0    0.00
        b_scf_auxbas             0.0    0.00             0.0    0.00
      b_scf_symmetry             0.0    0.00             0.0    0.00
         b_scf_cosmo             0.0    0.00             0.0    0.00
        b_scf_params            16.1    0.07            16.1    0.07
          b_scf_ri-j            47.4    0.20            47.4    0.20
    b_scf_ri-j_auxpq            47.3    0.20            47.3    0.20
     ri-j_auxpq_chol             2.3    0.01             2.3    0.01
         b_scf_1elec             6.8    0.03             6.8    0.03
       b_scf_moinput           113.6    0.47           113.6    0.47
     moinput_orthmos           112.7    0.47           112.6    0.47
    b_scf_dft-dstmax             0.0    0.00             0.0    0.00
           Ridft_scf         24005.7   99.22         24001.8   99.22
          Scf_b_loop             0.0    0.00             0.0    0.00
                noga             0.0    0.00             0.0    0.00
            Scf_loop         23995.2   99.18         23991.3   99.18
     scf_loop_mkdmat           201.7    0.83           202.1    0.84
       scf_loop_ri-j          7618.5   31.49          7615.8   31.48
      parlp1.bc.dens            11.0    0.05            11.0    0.05
        parlp1.gs.gp           184.3    0.76           184.2    0.76
        parlp2.bc.gq             0.0    0.00             0.0    0.00
        scf_loop_dft          8532.9   35.27          8531.3   35.27
      pardft.bc.dens             0.0    0.00             0.0    0.00
        dft_grid_con             6.9    0.03             7.0    0.03
           dft_xcrhf          8260.9   34.15          8259.5   34.14
          dft_getval           373.8    1.55           374.5    1.55
          funct2 dst            12.3    0.05            12.3    0.05
      funct2 f2loop1            70.7    0.29            71.5    0.30
      funct2 f2loop2           167.2    0.69           167.4    0.69
          funct2 s+c           118.8    0.49           118.7    0.49
        funct2 cmf_2           106.6    0.44           106.6    0.44
          dft_mkdens          3212.6   13.28          3212.0   13.28
         dft_gga-fun             3.7    0.02             3.5    0.01
          dft_mkfock          4666.0   19.29          4665.0   19.29
     pardft.red.fock           383.8    1.59           383.7    1.59
     scf_loop_energy             2.0    0.01             2.0    0.01
     scf_loop_mkfock             3.7    0.02             3.7    0.02
       scf_loop_diis          2703.7   11.18          2704.2   11.18
       scf_loop_diag          3299.8   13.64          3299.7   13.64
         diag_tritrn           960.5    3.97           960.5    3.97
          diag_rdiag          2329.7    9.63          2329.6    9.63
     scf_loop_modump           833.8    3.45           833.7    3.45
      scf_loop_ortho           758.7    3.14           758.5    3.14
          Scf_a_loop            10.5    0.04            10.5    0.04
         Ridft_a_scf             3.8    0.02             3.8    0.02
         a_scf_fanal             3.8    0.02             3.8    0.02
 


    ------------------------------------------------------------------------
         total  cpu-time :  6 hours 43 minutes and 42 seconds
         total wall-time :  6 hours 43 minutes and 38 seconds
    ------------------------------------------------------------------------


   ****  ridft : all done  ****


    2017-11-03 01:19:16.922 

