STARTING dscf ON 64 PROCESSORS!
RUNNING PROGRAM /beegfs/modfac/apps/TURBOMOLE/7.2.1-official/bin/em64t-unknown-linux-gnu_mpi/dscf_mpi.
PLEASE WAIT UNTIL dscf HAS FINISHED.
Look for the output in slave1.output.
MACHINEFILE is ./hostlist
 this is node-proc. number 1 running on node c-4-10.local
 the total number of node-proc. spawned is  65
  parallel platform: MPP or cluster with fast interconnect

 dscf (c-4-10.local) : TURBOMOLE V7.2 ( 21471 ) 7 Nov 2017 at 16:15:16
 Copyright (C) 2017 TURBOMOLE GmbH, Karlsruhe


    2018-02-24 03:54:25.615 


 SCF run will be profiled !



                             d s c f - program

                   idea & directorship : reinhart ahlrichs
                   program development : marco haeser
                                         michael baer
                           dft version : oliver treutler
           parallelized version : malte v. arnim, gina corongiu, GMD 


                          quantum chemistry group
                          universitaet  karlsruhe
                                  germany




                          References             
                                                 
          TURBOMOLE:                             
              R. Ahlrichs, M. Baer, M. Haeser, H. Horn, and
              C. Koelmel
              Electronic structure calculations on workstation
              computers: the program system TURBOMOLE
              Chem. Phys. Lett. 162: 165 (1989)
          Density Functional:                              
              O. Treutler and R. Ahlrichs                      
              Efficient Molecular Numerical Integration Schemes
              J. Chem. Phys. 102: 346 (1995)                   
          Parallel Version:                                
              Performance of parallel TURBOMOLE for Density    
              Functional Calculations                          
              M. v. Arnim and R. Ahlrichs                      
              J. Comp. Chem. 19: 1746 (1998)                   
                                         




              +--------------------------------------------------+
              | Atomic coordinate, charge and isotop information |
              +--------------------------------------------------+

                    atomic coordinates            atom    charge  isotop
          0.99983098    2.27022842    4.28976172    c      6.000     0
          2.48710807    0.09584961    4.39163542    c      6.000     0
          1.17615423   -2.19117405    4.48559974    c      6.000     0
         -1.45226929   -2.39010747    4.46730796    c      6.000     0
         -2.78628344   -0.12300939    4.35759329    c      6.000     0
         -1.63793068    2.25055548    4.23535275    c      6.000     0
         -3.11407188    4.62659342    4.11977596    c      6.000     0
         -3.08840784    6.26697104    6.18672877    c      6.000     0
         -4.41646638    8.53991405    6.18264081    c      6.000     0
         -5.82011739    9.20888476    4.06146507    c      6.000     0
         -5.87524501    7.60273202    1.97368050    c      6.000     0
         -4.53661592    5.33855564    1.98829002    c      6.000     0
         -2.75030830   -4.87040525    4.67298264    c      6.000     0
         -3.55171109   -6.25271537    2.55143576    c      6.000     0
         -4.75463168   -8.56476525    2.89864098    c      6.000     0
         -5.17724158   -9.54052768    5.30850749    c      6.000     0
         -4.38623898   -8.18377155    7.41816738    c      6.000     0
         -3.18404774   -5.86848176    7.07458722    c      6.000     0
          5.28649567    0.19888668    4.47054318    c      6.000     0
          6.75361331    0.96847579    2.39078996    c      6.000     0
          9.37121131    1.02923140    2.61221743    c      6.000     0
         10.57622705    0.33338673    4.84870459    c      6.000     0
          9.13917161   -0.44205910    6.91024675    c      6.000     0
          6.51753572   -0.50056906    6.69710277    c      6.000     0
          2.17055653    4.53148358    4.24585005    f      9.000     0
         -5.33166529   -0.22509561    4.40915431    f      9.000     0
          2.53078935   -4.34374056    4.59245764    f      9.000     0
         -1.77099151    5.65992826    8.27334732    f      9.000     0
         -4.36022207   10.06979858    8.19775174    f      9.000     0
         -7.10409534   11.39032407    4.03085675    f      9.000     0
         -7.23620931    8.31980689   -0.04731399    f      9.000     0
         -5.55104976   -9.94758328    0.91227972    f      9.000     0
         -6.33821694  -11.77446441    5.60951590    f      9.000     0
         -4.78461974   -9.10390981    9.74574967    f      9.000     0
         -2.43885163   -4.58425191    9.14502184    f      9.000     0
         10.84072745    1.74962522    0.65825925    f      9.000     0
         13.10484609    0.39960173    5.02748196    f      9.000     0
         10.27660790   -1.11001677    9.07483649    f      9.000     0
          5.16825874   -1.23490832    8.72936780    f      9.000     0
         -4.64886568    3.05669374   -1.24295190    i     53.000     0
         -2.98668180   -4.93812542   -1.21244390    i     53.000     0
          5.10080245    1.97086226   -1.14747160    i     53.000     0
          3.32504863    3.53778945   -5.88195488    n      7.000     0
          5.31113175    2.71334241   -7.63579180    c      6.000     0
          3.28614670    6.30798210   -5.69960578    c      6.000     0
          0.81458646    2.57125423   -6.60132364    c      6.000     0
          5.41722187    0.65317739   -7.66922896    h      1.000     0
          4.95804471    3.40575991   -9.57173914    h      1.000     0
          7.12955213    3.44209591   -6.98263474    h      1.000     0
          1.87201027    6.87726282   -4.30604713    h      1.000     0
          5.14008849    6.97231737   -5.07616450    h      1.000     0
          2.83153003    7.20013373   -7.52906246    h      1.000     0
          0.48896953   -0.25633627   -6.10784758    c      6.000     0
         -0.57917338    3.61545875   -5.48431276    h      1.000     0
          0.43811970    2.99824916   -8.61368357    h      1.000     0
         -2.05549796   -1.15671996   -7.12882732    c      6.000     0
          2.02220718   -1.31170110   -7.00935219    h      1.000     0
          0.59750572   -0.62164878   -4.07356776    h      1.000     0
         -2.68152854   -3.77552332   -6.43226601    n      7.000     0
         -3.57121007    0.04075393   -6.37395580    h      1.000     0
         -2.09912193   -0.93656318   -9.20897350    h      1.000     0
         -5.25288824   -4.39542434   -7.27486292    c      6.000     0
         -0.86146093   -5.61042528   -7.44374142    c      6.000     0
         -5.73228255   -6.30458081   -6.64998978    h      1.000     0
         -6.58817108   -3.06771482   -6.42407349    h      1.000     0
         -5.43249560   -4.29629915   -9.35048577    h      1.000     0
         -1.46669079   -7.50977586   -6.90544491    h      1.000     0
         -0.73504393   -5.50754310   -9.52417590    h      1.000     0
          1.00652163   -5.27402855   -6.63639349    h      1.000     0
 
       center of nuclear mass  :   -0.32559743    0.00391925    1.42073647
       center of nuclear charge:   -0.28711907    0.00288775    1.37326424

              +--------------------------------------------------+
              |               basis set information              |
              +--------------------------------------------------+

              we will work with the 1s 3p 5d 7f 9g ... basis set
              ...i.e. with spherical basis functions...

   type   atoms  prim   cont   basis
   ---------------------------------------------------------------------------
    c       31     77     55   cc-pVQZ   [5s4p3d2f1g|21s6p3d2f1g]
    f       15     77     55   cc-pVQZ   [5s4p3d2f1g|21s6p3d2f1g]
    i        3    161     67   cc-pVQZ-PP   [6s6p4d2f1g|24s18p12d2f1g]
    n        2     77     55   cc-pVQZ   [5s4p3d2f1g|21s6p3d2f1g]
    h       18     32     30   cc-pVQZ   [4s3p2d1f|6s3p2d1f]
   ---------------------------------------------------------------------------
   total:   69   4755   3381
   ---------------------------------------------------------------------------

   total number of primitive shells          :  168
   total number of contracted shells         :  957
   total number of cartesian basis functions : 4239
   total number of SCF-basis functions       : 3381


 integral neglect threshold       :  0.79E-14
 integral storage threshold THIZE :  0.10E-04
 integral storage threshold THIME :         5


 DENSITY CONVERGENCE CHECK SWITCHED ON !
 SCF CONVERGENCE IF RMS(delta[D]) <     0.1000000000E-06

 number of unique ecp types :                     1

 symmetry group of the molecule :   c1 

 the group has the following generators :
   c1(z)

    1 symmetry operations found

 there are 1 real representations :   a   

 maximum number of shells which are related by symmetry :  1


    mo occupation :
   irrep   mo's   occupied
    a     3381      214
 
 number of basis functions   :                   3381
 number of occupied orbitals :                    214
 

 automatic virtual orbital shift switched on 
      shift if e(lumo)-e(homo) < 0.10000000    


 keyword $2e-ints_shell_statistics missing in file <control>

 ! One task per shell generated
  No pre-computed optimal task distribution found
  ... using automatic task generation

          ------------------------
          nuclear repulsion energy  :   9155.74449676    
          ------------------------


         -----------------
         -S,T+V- integrals
         -----------------

 1e-integrals will be neglected if expon. factor < 0.788384E-15


          ----------------
          -ecp-  integrals
          ----------------
 
   Difference densities algorithm switched on.
   The maximal number of linear combinations of
   difference densities is                    20 .

 DIIS switched on: error vector is FDS-SDF
 Max. Iterations for DIIS is     :   5
 DIIS matrix (see manual) 
    Scaling factor of diagonals  :  1.200
    threshold for scaling factor :  0.000

 scf convergence criterion : increment of total energy < .1000000D-08
                  and increment of one-electron energy < .1000000D-05

  MOs are in ASCII format !


 reading orbital data $scfmo  from file mos
 orbital characterization : expanded
 mo provided and orthogonalized by Cholesky decomposition

 DSCF restart information will be dumped onto file mos

 
                                              current damping :  0.300
 ITERATION  ENERGY          1e-ENERGY        2e-ENERGY     RMS[dD(SAO)]   TOL
   1  -3661.8446179589    -23594.997604     10777.408489    0.000D+00 0.786D-14
          max. resid. norm for Fia-block=  3.728D-01 for orbital    146a         
          max. resid. fock norm         =  1.327D+01 for orbital   3115a         
          Delta Eig. =  1241.9321924868 eV 
 
                                              current damping :  0.250
 ITERATION  ENERGY          1e-ENERGY        2e-ENERGY     RMS[dD(SAO)]   TOL
   2  -3669.0103296287    -23634.822804     10810.067978    0.154D-01 0.780D-14
          Norm of current diis error:  5.4310    
          max. resid. norm for Fia-block=  1.004D-01 for orbital     94a         
          max. resid. fock norm         =  2.995D-01 for orbital   2089a         
          Delta Eig. =   297.0914931794 eV 
 
                                              current damping :  0.150
 ITERATION  ENERGY          1e-ENERGY        2e-ENERGY     RMS[dD(SAO)]   TOL
   3  -3669.6486877957    -23650.518233     10825.125048    0.311D-02 0.450D-14
          Norm of current diis error:  2.0555    
          max. resid. norm for Fia-block=  4.362D-02 for orbital    206a         
          max. resid. fock norm         =  4.638D-02 for orbital    206a         
          Delta Eig. =    66.2763176137 eV 
 
                                              current damping :  0.200
 ITERATION  ENERGY          1e-ENERGY        2e-ENERGY     RMS[dD(SAO)]   TOL
   4  -3669.7848580719    -23649.166886     10823.637531    0.991D-03 0.367D-14
          Norm of current diis error: 0.55968    
          max. resid. norm for Fia-block=  1.388D-02 for orbital    209a         
          max. resid. fock norm         =  1.826D-02 for orbital    187a         
          Delta Eig. =     7.9485593369 eV 
 
                                              current damping :  0.250
 ITERATION  ENERGY          1e-ENERGY        2e-ENERGY     RMS[dD(SAO)]   TOL
   5  -3669.7992229796    -23650.645177     10825.101458    0.236D-03 0.338D-14
          Norm of current diis error: 0.18766    
          max. resid. norm for Fia-block=  9.048D-03 for orbital    205a         
          max. resid. fock norm         =  9.762D-03 for orbital    205a         
 mo-orthogonalization: Cholesky decomposition
          Delta Eig. =     1.2784045814 eV 
 
                                              current damping :  0.100
 ITERATION  ENERGY          1e-ENERGY        2e-ENERGY     RMS[dD(SAO)]   TOL
   6  -3669.8016877219    -23650.814450     10825.268266    0.830D-04 0.319D-14
          Norm of current diis error: 0.94496E-01
          max. resid. norm for Fia-block=  3.402D-03 for orbital    208a         
          max. resid. fock norm         =  3.774D-03 for orbital    201a         
          Delta Eig. =     0.3565998774 eV 
 
                                              current damping :  0.150
 ITERATION  ENERGY          1e-ENERGY        2e-ENERGY     RMS[dD(SAO)]   TOL
   7  -3669.8023822217    -23650.745670     10825.198791    0.331D-04 0.304D-14
          Norm of current diis error: 0.40252E-01
          max. resid. norm for Fia-block=  2.081D-03 for orbital    205a         
          max. resid. fock norm         =  2.187D-03 for orbital    205a         
          Delta Eig. =     0.0631662734 eV 
 
                                              current damping :  0.200
 ITERATION  ENERGY          1e-ENERGY        2e-ENERGY     RMS[dD(SAO)]   TOL
   8  -3669.8025387529    -23650.843589     10825.296553    0.120D-04 0.290D-14
          Norm of current diis error: 0.19390E-01
          max. resid. norm for Fia-block=  9.170D-04 for orbital    203a         
          max. resid. fock norm         =  9.538D-04 for orbital    203a         
          Delta Eig. =     0.0407785961 eV 
 
                                              current damping :  0.250
 ITERATION  ENERGY          1e-ENERGY        2e-ENERGY     RMS[dD(SAO)]   TOL
   9  -3669.8025734037    -23650.828337     10825.281267    0.552D-05 0.279D-14
          Norm of current diis error: 0.91813E-02
          max. resid. norm for Fia-block=  6.126D-04 for orbital    203a         
          max. resid. fock norm         =  6.277D-04 for orbital    203a         
          Delta Eig. =     0.0165536339 eV 
 
                                              current damping :  0.300
 ITERATION  ENERGY          1e-ENERGY        2e-ENERGY     RMS[dD(SAO)]   TOL
  10  -3669.8025824752    -23650.834791     10825.287712    0.266D-05 0.270D-14
          Norm of current diis error: 0.51295E-02
          max. resid. norm for Fia-block=  3.758D-04 for orbital    203a         
          max. resid. fock norm         =  3.844D-04 for orbital    203a         
 mo-orthogonalization: Cholesky decomposition
          Delta Eig. =     0.0109900609 eV 
 
                                              current damping :  0.350
 ITERATION  ENERGY          1e-ENERGY        2e-ENERGY     RMS[dD(SAO)]   TOL
  11  -3669.8025852599    -23650.833816     10825.286734    0.153D-05 0.260D-14
          Norm of current diis error: 0.26242E-02
          max. resid. norm for Fia-block=  2.329D-04 for orbital    203a         
          max. resid. fock norm         =  2.359D-04 for orbital    203a         
          Delta Eig. =     0.0047376594 eV 
 
                                              current damping :  0.400
 ITERATION  ENERGY          1e-ENERGY        2e-ENERGY     RMS[dD(SAO)]   TOL
  12  -3669.8025860530    -23650.833925     10825.286842    0.738D-06 0.252D-14
          Norm of current diis error: 0.13681E-02
          max. resid. norm for Fia-block=  1.294D-04 for orbital    203a         
          max. resid. fock norm         =  1.304D-04 for orbital    203a         
          Delta Eig. =     0.0021653828 eV 
 
                                              current damping :  0.450
 ITERATION  ENERGY          1e-ENERGY        2e-ENERGY     RMS[dD(SAO)]   TOL
  13  -3669.8025862796    -23650.832959     10825.285876    0.414D-06 0.244D-14
          Norm of current diis error: 0.66428E-03
          max. resid. norm for Fia-block=  6.237D-05 for orbital    203a         
          max. resid. fock norm         =  6.299D-05 for orbital    203a         
          Delta Eig. =     0.0011137822 eV 
 
                                              current damping :  0.300
 ITERATION  ENERGY          1e-ENERGY        2e-ENERGY     RMS[dD(SAO)]   TOL
  14  -3669.8025863311    -23650.832923     10825.285840    0.206D-06 0.238D-14
          Norm of current diis error: 0.32213E-03
          max. resid. norm for Fia-block=  2.797D-05 for orbital    203a         
          max. resid. fock norm         =  2.842D-05 for orbital    203a         
          Delta Eig. =     0.0006588184 eV 
 
                                              current damping :  0.150
 ITERATION  ENERGY          1e-ENERGY        2e-ENERGY     RMS[dD(SAO)]   TOL
  15  -3669.8025863448    -23650.832527     10825.285444    0.114D-06 0.232D-14
          Norm of current diis error: 0.14869E-03
          max. resid. norm for Fia-block=  1.012D-05 for orbital    203a         
          max. resid. fock norm         =  1.046D-05 for orbital    203a         
 mo-orthogonalization: Cholesky decomposition
          Delta Eig. =     0.0004513949 eV 

 DENSITY CONVERGED !

 
                                              current damping :  0.100
 ITERATION  ENERGY          1e-ENERGY        2e-ENERGY     RMS[dD(SAO)]   TOL
  16  -3669.8025863473    -23650.832506     10825.285423    0.577D-07 0.227D-14
          Norm of current diis error: 0.56597E-04
          max. resid. norm for Fia-block=  4.139D-06 for orbital    195a         
          max. resid. fock norm         =  4.406D-06 for orbital    195a         
          Delta Eig. =     0.0000988178 eV 

 DENSITY CONVERGED !

 
                                              current damping :  0.100
 ITERATION  ENERGY          1e-ENERGY        2e-ENERGY     RMS[dD(SAO)]   TOL
  17  -3669.8025863478    -23650.832416     10825.285333    0.211D-07 0.224D-14
          Norm of current diis error: 0.31289E-04
          max. resid. norm for Fia-block=  1.707D-06 for orbital    196a         
          max. resid. fock norm         =  1.915D-06 for orbital   3323a         
          Delta Eig. =     0.0001175071 eV 

 DENSITY CONVERGED !

 
                                              current damping :  0.150
 ITERATION  ENERGY          1e-ENERGY        2e-ENERGY     RMS[dD(SAO)]   TOL
  18  -3669.8025863478    -23650.832425     10825.285342    0.905D-08 0.224D-14
          Norm of current diis error: 0.12395E-04
          max. resid. norm for Fia-block=  8.037D-07 for orbital    196a         
          max. resid. fock norm         =  8.376D-07 for orbital    196a         
          Delta Eig. =     0.0000178483 eV 

 ENERGY & DENSITY CONVERGED !

 
                                              current damping :  0.200
 ITERATION  ENERGY          1e-ENERGY        2e-ENERGY     RMS[dD(SAO)]   TOL
  19  -3669.8025863479    -23650.832419     10825.285335    0.394D-08 0.224D-14
          max. resid. norm for Fia-block=  2.065D-07 for orbital    196a         
          max. resid. fock norm         =  2.197D-07 for orbital    196a         

 convergence criteria satisfied after    19 iterations


                  ------------------------------------------ 
                 |  total energy      =  -3669.80258634792  |
                  ------------------------------------------ 
                 :  kinetic energy    =   3115.09652826612  :
                 :  potential energy  =  -6784.89911461404  :
                 :  virial theorem    =      1.84884580436  :
                 :  wavefunction norm =      1.00000000000  :
                  .......................................... 


 <geterg> : there is no data group $energy 


 <skperg> : $end is missing 


 orbitals $scfmo  will be written to file mos

    irrep                210a        211a        212a        213a        214a   
 eigenvalues H         -0.36797    -0.36177    -0.36051    -0.34942    -0.34800
            eV         -10.0131     -9.8445     -9.8100     -9.5082     -9.4697
 occupation              2.0000      2.0000      2.0000      2.0000      2.0000 

    irrep                215a        216a        217a        218a        219a   
 eigenvalues H          0.05873     0.06279     0.07018     0.08191     0.08829
            eV           1.5982      1.7085      1.9096      2.2289      2.4024
 
 
 
 
 ==============================================================================
                           electrostatic moments
 ==============================================================================

 reference point for electrostatic moments:    0.00000   0.00000   0.00000

 
              nuc           elec       ->  total
 ------------------------------------------------------------------------------
                          charge      
 ------------------------------------------------------------------------------
         428.000000    -428.000000      -0.000000
 
 ------------------------------------------------------------------------------
                       dipole moment  
 ------------------------------------------------------------------------------
   x     -76.032104      75.698666      -0.333438
   y      -1.025528       1.495399       0.469871
   z     803.991577    -807.223200      -3.231623
 
   | dipole moment | =     3.2826 a.u. =     8.3435 debye 
 
 ------------------------------------------------------------------------------
                     quadrupole moment
 ------------------------------------------------------------------------------
  xx   12306.214548  -12585.764097    -279.549550
  yy   12556.208498  -12832.017722    -275.809223
  zz   12333.670386  -12597.035946    -263.365560
  xy     987.054666    -986.804281       0.250385
  xz     152.107814    -155.804917      -3.697103
  yz    -593.838786     598.165648       4.326862
 
     1/3  trace=    -272.908111
     anisotropy=      17.684376
 
 ==============================================================================
 

    dscf profiling
  --------------------------------------------------------------------
             module   cpu total (s)       %  wall total (s)       %

          dscf.total         13491.9  100.00         12049.0  100.00
        dscf.prepare            45.3    0.34            45.3    0.38
      prepare.oneint             0.9    0.01             0.9    0.01
     prepare.moinput             0.6    0.00             0.6    0.01
     moinput_orthmos            43.1    0.32            43.1    0.36
            dscf.scf         13444.2   99.65         12001.1   99.60
             scf.pre             0.0    0.00             0.0    0.00
        scf.makedmat            32.1    0.24            34.6    0.29
          scf.shloop         10909.2   80.86         10904.1   90.50
          shloop_omp         10905.8   80.83         10900.7   90.47
          scf.symcar             4.0    0.03             4.0    0.03
        scf.makefock             7.6    0.06            13.0    0.11
          scf.newerg             0.3    0.00             0.3    0.00
          scf.newcnv           477.1    3.54            60.7    0.50
           scf.fdiag          1133.1    8.40           142.3    1.18
         diag_tritrn           321.4    2.38            40.4    0.34
          diag_rdiag           802.5    5.95           100.5    0.83
          scf.modump           750.9    5.57           758.2    6.29
           ortho_all            86.5    0.64            38.6    0.32
            scf.post            41.8    0.31            45.0    0.37
        dscf.postscf             2.4    0.02             2.6    0.02
 


    ------------------------------------------------------------------------
         total  cpu-time :  3 hours 44 minutes and 52 seconds
         total wall-time :  3 hours 20 minutes and 50 seconds
    ------------------------------------------------------------------------

   ****  dscf : all done  ****


    2018-02-24 07:15:14.892 

