Using Slurm to start processes with PMI2
STARTING ridft ON 8 PROCESSORS!
RUNNING PROGRAM /beegfs/modfac/apps/TURBOMOLE/7.0_intel_GA/bin/em64t-unknown-linux-gnu_mpi/ridft_mpi.
PLEASE WAIT UNTIL ridft HAS FINISHED.
Look for the output in slave1.output.
  this is node-proc. number 1 running on node c-6-29.local
  the total number of node-proc. spawned is            8
  parallel platform: MPP, or cluster with fast interconnect

 ridft (c-6-29.local) : TURBOMOLE V7.0.2( ) 15 Jan 2016 at 17:47:42
 Copyright (C) 2016 TURBOMOLE GmbH, Karlsruhe


    2018-01-15 14:21:53.713 



                                  r i d f t

                        DFT program with RI approximation 
                                for coulomb part 




                                                 
                                 References:     
                                                 
          TURBOMOLE:                             
              R. Ahlrichs, M. Baer, M. Haeser, H. Horn, and
              C. Koelmel
              Electronic structure calculations on workstation
              computers: the program system TURBOMOLE
              Chem. Phys. Lett. 162: 165 (1989)
          Density Functional:                              
              O. Treutler and R. Ahlrichs                      
              Efficient Molecular Numerical Integration Schemes
              J. Chem. Phys. 102: 346 (1995)                   
          Parallel Version:                                
              Performance of parallel TURBOMOLE for Density    
              Functional Calculations                          
              M. v. Arnim and R. Ahlrichs                      
              J. Comp. Chem. 19: 1746 (1998)                   
          RI-J Method:                                     
              Auxiliary Basis Sets to approximate Coulomb      
              Potentials                                       
              Chem. Phys. Lett. 240: 283 (1995)                
              K. Eichkorn, O. Treutler, H. Oehm, M. Haeser     
              and R. Ahlrichs                                  
              Chem. Phys. Lett. 242: 652 (1995)                
                                                           
              Auxiliary Basis Sets for Main Row Atoms and their
              Use to approximate Coulomb Potentials            
              K. Eichkorn, F. Weigend, O. Treutler and         
              R. Ahlrichs                                      
              Theo. Chem. Acc. 97: 119 (1997)                   
                                                           
              Accurate Coulomb-fitting basis sets for H to Rn 
              F. Weigend                                        
              Phys. Chem. Chem. Phys. 8: 1057 (2006)            
                                                           
          Multipole accelerated RI-J (MARI-J):             
              Fast evaluation of the Coulomb potential for     
              electron densities using multipole accelerated   
              resolution of identity approximation             
              M. Sierka, A. Hogekamp and R. Ahlrichs           
              J. Chem. Phys. 118: 9136 (2003)                  
          RI-JK Method:                                     
              A fully direct RI-HF algorithm: Implementation,
              optimised auxiliary basis sets, demonstration of
              accuracy and efficiency                         
              F. Weigend                                      
              Phys. Chem. Chem. Phys. 4: 4285 (2002)           
          Two-component HF and DFT with spin-orbit coupling:  
              Self-consistent treatment of spin-orbit         
              interactions with efficient Hartree-Fock and    
              density functional methods                      
              M. K. Armbruster, F. Weigend, C. van Wüllen and 
              W. Klopper                                      
              Phys. Chem. Chem. Phys. 10: 1748 (2008)         
          Relativistic all-electron 2c calculations           
              An efficient implementation of two-component    
              relativistic exact-decoupling methods for large 
              molecules                                       
              D. Peng, N. Middendorf, F. Weigend, M. Reiher   
              J. Chem. Phys. 138, 184105 (2013)               
                                         


 


              +--------------------------------------------------+
              |      general information about current run       |
              +--------------------------------------------------+

 

 SCF run will be profiled !


 DENSITY CONVERGENCE CHECK SWITCHED ON !
 SCF CONVERGENCE IF RMS(delta[D]) <     0.1000000000E-06

 TPSS meta-GGA functional
 exchange:    LDA + TPSS
 correlation: LDA (PW) + TPSS
 A DFT calculation using the RI-J approximation will be carried out.
 Allocatable memory for RI due to $ricore (MB):       21000


              +--------------------------------------------------+
              | Atomic coordinate, charge and isotop information |
              +--------------------------------------------------+

                    atomic coordinates            atom    charge  isotop
          1.29102896    2.23612775    5.35940406    c      6.000     0
          2.68444732    0.00000000    5.34775669    c      6.000     0
          1.29102896   -2.23612775    5.35940406    c      6.000     0
         -1.34222366   -2.32479958    5.34775669    c      6.000     0
         -2.58205792    0.00000000    5.35940406    c      6.000     0
         -1.34222366    2.32479958    5.34775669    c      6.000     0
         -2.74209098    4.74944089    5.17369628    c      6.000     0
         -3.47165961    6.01309083    7.36565771    c      6.000     0
         -4.78742225    8.29205857    7.27396970    c      6.000     0
         -5.38971831    9.33526596    4.93546263    c      6.000     0
         -4.67190964    8.09198487    2.72597715    c      6.000     0
         -3.35880377    5.81761878    2.81855316    c      6.000     0
         -2.74209098   -4.74944089    5.17369628    c      6.000     0
         -3.35880377   -5.81761878    2.81855316    c      6.000     0
         -4.67190964   -8.09198487    2.72597715    c      6.000     0
         -5.38971831   -9.33526596    4.93546263    c      6.000     0
         -4.78742225   -8.29205857    7.27396970    c      6.000     0
         -3.47165961   -6.01309083    7.36565771    c      6.000     0
          5.48418196    0.00000000    5.17369628    c      6.000     0
          6.71760754    0.00000000    2.81855316    c      6.000     0
          9.34381929    0.00000000    2.72597715    c      6.000     0
         10.77943663    0.00000000    4.93546263    c      6.000     0
          9.57484449    0.00000000    7.27396970    c      6.000     0
          6.94331922    0.00000000    7.36565771    c      6.000     0
          2.56458096    4.44198451    5.30703898    f      9.000     0
         -5.12916191    0.00000000    5.30703898    f      9.000     0
          2.56458096   -4.44198451    5.30703898    f      9.000     0
         -2.90994879    5.04017915    9.65013893    f      9.000     0
         -5.47160393    9.47709601    9.40663768    f      9.000     0
         -6.65606662   11.52864556    4.82298142    f      9.000     0
         -5.29334333    9.16833958    0.50315811    f      9.000     0
         -5.29334333   -9.16833958    0.50315811    f      9.000     0
         -6.65606662  -11.52864556    4.82298142    f      9.000     0
         -5.47160393   -9.47709601    9.40663768    f      9.000     0
         -2.90994879   -5.04017915    9.65013893    f      9.000     0
         10.58668665    0.00000000    0.50315811    f      9.000     0
         13.31213324    0.00000000    4.82298142    f      9.000     0
         10.94320787    0.00000000    9.40663768    f      9.000     0
          5.81989758    0.00000000    9.65013893    f      9.000     0
         -2.31430977    4.00850211   -0.59311698    i     53.000     0
         -2.31430977   -4.00850211   -0.59311698    i     53.000     0
          4.62861954    0.00000000   -0.59311698    i     53.000     0
          3.99736087   -2.26207693   -6.71003915    c      0.000     0
          5.92734477   -2.13882400   -5.97866723    h      0.000     0
          4.10220135   -2.23748546   -8.79875309    h      0.000     0
          2.68582355   -4.65198285   -5.81886616    c      0.000     0
          3.64577576   -6.31466884   -6.59083899    h      0.000     0
          2.75180702   -4.76626957   -3.75428211    h      0.000     0
         -0.03966435   -4.59285453   -6.71003915    c      0.000     0
         -0.11338143   -4.67135331   -8.79875309    h      0.000     0
         -1.11139647   -6.20264315   -5.97866723    h      0.000     0
         -3.95769652   -2.33077759   -6.71003915    c      0.000     0
         -4.81594831   -4.06381915   -5.97866723    h      0.000     0
         -3.98881992   -2.43386785   -8.79875309    h      0.000     0
         -5.37164710    0.00000000   -5.81886616    c      0.000     0
         -5.50361403    0.00000000   -3.75428211    h      0.000     0
         -7.29155151    0.00000000   -6.59083899    h      0.000     0
         -3.95769652    2.33077759   -6.71003915    c      0.000     0
         -3.98881992    2.43386785   -8.79875309    h      0.000     0
         -4.81594831    4.06381915   -5.97866723    h      0.000     0
         -0.03966435    4.59285453   -6.71003915    c      0.000     0
         -1.11139647    6.20264315   -5.97866723    h      0.000     0
         -0.11338143    4.67135331   -8.79875309    h      0.000     0
          2.68582355    4.65198285   -5.81886616    c      0.000     0
          3.64577576    6.31466884   -6.59083899    h      0.000     0
          2.75180702    4.76626957   -3.75428211    h      0.000     0
          3.99736087    2.26207693   -6.71003915    c      0.000     0
          4.10220135    2.23748546   -8.79875309    h      0.000     0
          5.92734477    2.13882400   -5.97866723    h      0.000     0
          0.00000000    0.00000000   -6.67566966    c      0.000     0
          0.00000000    0.00000000   -8.80405438    h      0.000     0
          2.63800737    0.00000000   -5.79850129    n      0.000     0
         -1.31900368   -2.28458139   -5.79850129    n      0.000     0
         -1.31900368    2.28458139   -5.79850129    n      0.000     0
 
       center of nuclear mass  :   -0.00000000   -0.00000000    1.58306549
       center of nuclear charge:   -0.00000000   -0.00000000    3.29984425

              +--------------------------------------------------+
              |               basis set information              |
              +--------------------------------------------------+

              we will work with the 1s 3p 5d 7f 9g ... basis set
              ...i.e. with spherical basis functions...

   type   atoms  prim   cont   basis
   ---------------------------------------------------------------------------
    c       34     77     55   cc-pVQZ   [5s4p3d2f1g|21s6p3d2f1g]
    f       15     77     55   cc-pVQZ   [5s4p3d2f1g|21s6p3d2f1g]
    i        3    161     67   cc-pVQZ-PP   [6s6p4d2f1g|24s18p12d2f1g]
    h       19     32     30   cc-pVQZ   [4s3p2d1f|6s3p2d1f]
    n        3     77     55   cc-pVQZ   [5s4p3d2f1g|21s6p3d2f1g]
   ---------------------------------------------------------------------------
   total:   74   5095   3631
   ---------------------------------------------------------------------------

   total number of primitive shells          :  168
   total number of contracted shells         : 1027
   total number of cartesian basis functions : 4554
   total number of SCF-basis functions       : 3631


 integral neglect threshold       :  0.73E-14
 integral storage threshold THIZE :  0.10E-04
 integral storage threshold THIME :         5

 number of unique ecp types :           1
 RI-J AUXILIARY BASIS SET information:

              we will work with the 1s 3p 5d 7f 9g ... basis set
              ...i.e. with spherical basis functions...

   type   atoms  prim   cont   basis
   ---------------------------------------------------------------------------
    c       34     70     49   cc-pVQZ   [6s4p3d1f1g|12s5p4d2f1g]
    f       15     70     49   cc-pVQZ   [6s4p3d1f1g|12s5p4d2f1g]
    i        3     81     58   universal-ecp-2   [8s4p3d2f1g|11s5p5d3f1g]
    h       19     16     11   cc-pVQZ   [3s1p1d|5s2p1d]
    n        3     70     49   cc-pVQZ   [6s4p3d1f1g|12s5p4d2f1g]
   ---------------------------------------------------------------------------
   total:   74   4187   2931
   ---------------------------------------------------------------------------

   total number of primitive shells          :  105
   total number of contracted shells         :  929
   total number of cartesian basis functions : 3619
   total number of SCF-basis functions       : 2931


 symmetry group of the molecule :   c1 

 the group has the following generators :
   c1(z)

    1 symmetry operations found

 there are 1 real representations :   a   

 maximum number of shells which are related by symmetry :  1


    mo occupation :
   irrep   mo's   occupied
    a     3631      177
 
 number of basis functions   :         3631
 number of occupied orbitals :          177
 
  
           ------------------
           density functional
           ------------------
 Dummy atoms with grid-point found.
 DFT quadrature threshold dgrenze tightened by factor 1/10.

 TPSS meta-GGA functional
 exchange:    LDA + TPSS
 correlation: LDA (PW) + TPSS
 Dummy atoms with grid-point found.
 DFT quadrature threshold dgrenze tightened by factor 1/10.

 Dummy atoms with grid-point found.
 DFT quadrature threshold dgrenze tightened by factor 1/10.

 grinp -> nfun, dfgga, dfhybrid 
           5 F F
 iterations will be done with small grid
  
 spherical integration : Lebedev's spherical grid
 spherical gridsize    :           5
    i.e. gridpoints    :         590
 value for diffuse not defined
 radial integration    : Chebyshev 2nd kind (scaling 3)
 radial gridsize       :           8
 integration cells     :          74
 partition function    : becke
 partition sharpness   :           3
  
 found dummy atom(s) with basis: included in dft

 <rddim> : input of entry tasksize
           from data group '$pardft' failed !

               Default values taken

 <rddim> : input of entry memdiv
           from data group '$pardft' failed !

               Default values taken
  RIDFT: memory allocation for DFT gridpoints
  MEMORY is divided by 1 as DEFAULT
 Each node can hold at most  the            1 -th part
 of the gridpoints    

 biggest AO integral is expected to be     5.406832293
  
           ------------------------
               RI-J - INFORMATION
           ------------------------
 
 
 **************************************************
 *      MEMORY ALLOCATION FOR PARALLEL RI-DFT     *
 **************************************************
 
 
MEMORY FOR (MU NU/ ALPHA), SEQUENTIAL RUN              20929 MByte
 
            DIFFERENCE IN MEMORY NEED:       DIAG./SLAVE  
 
      TOTAL DIFFERENCE :                    608 MByte
 
      difference in xcore:                   72 MByte
      difference in fatmat:                 177 MByte
      getcor calls skipped by slaves:       360 MByte
 
 
           Integral memory available for diagonal.     20929 MByte
 
           Integral memory available for slave             0 MByte
 
         MEMORY FOR (MU NU/ ALPHA) ON DIAGONALIZER     20929 MByte
 
         MEMORY FOR (MU NU/ ALPHA) ON ONE SLAVE            0 MByte
 
         TOTAL MEMORY FOR (MU NU/ ALPHA),ALL NODES     20929 MByte
 
 Contributions to RI integral batches: 
  neglected integral batches:      333156
  direct contribution:             121318
  memory contribution:       73404
 Memory core needed for (P|Q) and Cholesky     66 MByte
 Memory core minimum needed except of (P|Q)    12 MByte
 Total minimum memory core needed (sum)        77 MByte
     number of direct tasks:         160
  
 ****************************************
 Memory allocated for RI-J 21005 MByte
 ****************************************
                                            

          ------------------------
          nuclear repulsion energy  :   6675.49755796    
          ------------------------

 
          -----------------
          -S integrals
          -----------------

 1e-integrals will be neglected if expon. factor < 0.733852E-15
 
          -----------------
          -T+V integrals
          -----------------

 1e-integrals will be neglected if expon. factor < 0.733852E-15
 
           ----------------
           -ecp-  integrals
           ----------------
 Difference densities >>NOT<< switched on in parallel ridft!

 automatic virtual orbital shift switched on 
      shift if e(lumo)-e(homo) < 0.10000000    


 DIIS switched on: error vector is FDS-SDF
 Max. Iterations for DIIS is     :   4
 DIIS matrix (see manual) 
    Scaling factor of diagonals  :  1.200
    threshold for scaling factor :  0.000

 scf convergence criterion : increment of total energy < .1000000D-08
                  and increment of one-electron energy < .1000000D-05

  MOs are in ASCII format !


 reading orbital data $scfmo  from file mos . 

 orbital characterization : expanded
 
 mo provided and orthogonalized by Cholesky decomposition

 DSCF restart information will be dumped onto file mos


 Starting SCF iterations


 ITERATION  ENERGY          1e-ENERGY        2e-ENERGY     RMS[dD(SAO)]   TOL
   1  -3293.3870214784    -18129.433278     8160.5486988    0.000D+00 0.732D-14
                            Exc = -353.826579429     Coul =  8514.37527818    
                              N = 353.99959738    
                            current damping = 0.700
 
          max. resid. norm for Fia-block=  3.841D-01 for orbital    130a         
          max. resid. fock norm         =  1.775D+01 for orbital   3410a         

 ITERATION  ENERGY          1e-ENERGY        2e-ENERGY     RMS[dD(SAO)]   TOL
   2  -3299.1919165330    -18160.193341     8185.5038660    0.119D-01 0.732D-14
                            Exc = -352.539547525     Coul =  8538.04341355    
                              N = 353.99964613    
                            current damping = 0.650
 
          Norm of current diis error:  6.0579    
          max. resid. norm for Fia-block=  1.451D-01 for orbital     12a         
          max. resid. fock norm         =  2.799D-01 for orbital   2140a         

 ITERATION  ENERGY          1e-ENERGY        2e-ENERGY     RMS[dD(SAO)]   TOL
   3  -3299.9350708491    -18179.013567     8203.5809385    0.461D-02 0.732D-14
                            Exc = -354.028280544     Coul =  8557.60921908    
                              N = 353.99967389    
                            current damping = 0.550
 
          Norm of current diis error:  2.9362    
          max. resid. norm for Fia-block=  5.855D-02 for orbital      5a         
          max. resid. fock norm         =  8.652D-02 for orbital    387a         

 ITERATION  ENERGY          1e-ENERGY        2e-ENERGY     RMS[dD(SAO)]   TOL
   4  -3300.1645375812    -18179.385127     8203.7230316    0.171D-02 0.732D-14
                            Exc = -353.196230842     Coul =  8556.91926241    
                              N = 353.99968287    
                            current damping = 0.400
 
          Norm of current diis error:  1.0880    
          max. resid. norm for Fia-block=  2.270D-02 for orbital     68a         
          max. resid. fock norm         =  4.380D-02 for orbital   2037a         

 ITERATION  ENERGY          1e-ENERGY        2e-ENERGY     RMS[dD(SAO)]   TOL
   5  -3300.1971795127    -18182.373336     8206.6785983    0.882D-03 0.732D-14
                            Exc = -353.758050287     Coul =  8560.43664855    
                              N = 353.99968547    
                            current damping = 0.300
 
          Norm of current diis error: 0.54814    
          max. resid. norm for Fia-block=  8.111D-03 for orbital    105a         
          max. resid. fock norm         =  9.791D-03 for orbital   3612a         
          mo-orthogonalization: Cholesky decomposition

 ITERATION  ENERGY          1e-ENERGY        2e-ENERGY     RMS[dD(SAO)]   TOL
   6  -3300.2056932098    -18183.637729     8207.9344780    0.536D-03 0.732D-14
                            Exc = -353.571578148     Coul =  8561.50605611    
                              N = 353.99968960    
                            current damping = 0.200
 
          Norm of current diis error: 0.22086    
          max. resid. norm for Fia-block=  3.468D-03 for orbital    171a         
          max. resid. fock norm         =  6.756D-03 for orbital   2066a         

 ITERATION  ENERGY          1e-ENERGY        2e-ENERGY     RMS[dD(SAO)]   TOL
   7  -3300.2059629192    -18182.307909     8206.6043880    0.151D-03 0.732D-14
                            Exc = -353.567560321     Coul =  8560.17194831    
                              N = 353.99968301    
                            current damping = 0.250
 
          Norm of current diis error: 0.19804    
          max. resid. norm for Fia-block=  1.855D-03 for orbital    172a         
          max. resid. fock norm         =  4.192D-03 for orbital   3585a         

 ITERATION  ENERGY          1e-ENERGY        2e-ENERGY     RMS[dD(SAO)]   TOL
   8  -3300.2070140810    -18183.017072     8207.3124997    0.269D-04 0.732D-14
                            Exc = -353.597281595     Coul =  8560.90978133    
                              N = 353.99968687    
                            current damping = 0.300
 
          Norm of current diis error: 0.40709E-01
          max. resid. norm for Fia-block=  1.062D-03 for orbital    106a         
          max. resid. fock norm         =  1.822D-03 for orbital   3612a         

 ITERATION  ENERGY          1e-ENERGY        2e-ENERGY     RMS[dD(SAO)]   TOL
   9  -3300.2070325426    -18183.057121     8207.3525302    0.141D-04 0.732D-14
                            Exc = -353.607500910     Coul =  8560.96003112    
                              N = 353.99968623    
                            current damping = 0.150
 
          Norm of current diis error: 0.31730E-01
          max. resid. norm for Fia-block=  6.321D-04 for orbital    106a         
          max. resid. fock norm         =  8.391D-04 for orbital    154a         

 ITERATION  ENERGY          1e-ENERGY        2e-ENERGY     RMS[dD(SAO)]   TOL
  10  -3300.2070556431    -18183.084026     8207.3794127    0.111D-04 0.732D-14
                            Exc = -353.595201552     Coul =  8560.97461424    
                              N = 353.99968651    
                            current damping = 0.050
 
          Norm of current diis error: 0.12822E-01
          max. resid. norm for Fia-block=  1.707D-04 for orbital    106a         
          max. resid. fock norm         =  2.606D-04 for orbital    163a         
          mo-orthogonalization: Cholesky decomposition

 ITERATION  ENERGY          1e-ENERGY        2e-ENERGY     RMS[dD(SAO)]   TOL
  11  -3300.2070594804    -18183.040951     8207.3363340    0.279D-05 0.732D-14
                            Exc = -353.600251133     Coul =  8560.93658517    
                              N = 353.99968639    
                            current damping = 0.100
 
          Norm of current diis error: 0.47021E-02
          max. resid. norm for Fia-block=  6.307D-05 for orbital    167a         
          max. resid. fock norm         =  1.023D-04 for orbital   2974a         

 ITERATION  ENERGY          1e-ENERGY        2e-ENERGY     RMS[dD(SAO)]   TOL
  12  -3300.2070599151    -18183.061614     8207.3569966    0.869D-06 0.732D-14
                            Exc = -353.598964027     Coul =  8560.95596064    
                              N = 353.99968647    
                            current damping = 0.150
 
          Norm of current diis error: 0.24532E-02
          max. resid. norm for Fia-block=  3.490D-05 for orbital    171a         
          max. resid. fock norm         =  6.799D-05 for orbital   3576a         

 ITERATION  ENERGY          1e-ENERGY        2e-ENERGY     RMS[dD(SAO)]   TOL
  13  -3300.2070600729    -18183.050151     8207.3455332    0.476D-06 0.732D-14
                            Exc = -353.598796458     Coul =  8560.94432967    
                              N = 353.99968641    
                            current damping = 0.200
 
          Norm of current diis error: 0.11492E-02
          max. resid. norm for Fia-block=  1.604D-05 for orbital    172a         
          max. resid. fock norm         =  3.244D-05 for orbital   3582a         

 ITERATION  ENERGY          1e-ENERGY        2e-ENERGY     RMS[dD(SAO)]   TOL
  14  -3300.2070601000    -18183.055363     8207.3507446    0.192D-06 0.732D-14
                            Exc = -353.598969646     Coul =  8560.94971428    
                              N = 353.99968643    
                            current damping = 0.250
 
          Norm of current diis error: 0.51482E-03
          max. resid. norm for Fia-block=  7.057D-06 for orbital    177a         
          max. resid. fock norm         =  1.443D-05 for orbital   3568a         

 ITERATION  ENERGY          1e-ENERGY        2e-ENERGY     RMS[dD(SAO)]   TOL
  15  -3300.2070601078    -18183.053883     8207.3492653    0.121D-06 0.732D-14
                            Exc = -353.599048158     Coul =  8560.94831343    
                              N = 353.99968642    
                            current damping = 0.300
 
          Norm of current diis error: 0.15979E-03
          max. resid. norm for Fia-block=  1.880D-06 for orbital    118a         
          max. resid. fock norm         =  3.391D-06 for orbital   3489a         
          mo-orthogonalization: Cholesky decomposition

 DENSITY CONVERGED !


 ITERATION  ENERGY          1e-ENERGY        2e-ENERGY     RMS[dD(SAO)]   TOL
  16  -3300.2070601083    -18183.054130     8207.3495119    0.503D-07 0.732D-14
                            Exc = -353.598978926     Coul =  8560.94849083    
                              N = 353.99968643    
                            current damping = 0.350
 
          Norm of current diis error: 0.46970E-04
          max. resid. norm for Fia-block=  1.099D-06 for orbital    167a         
          max. resid. fock norm         =  1.522D-06 for orbital    173a         

 DENSITY CONVERGED !


 ITERATION  ENERGY          1e-ENERGY        2e-ENERGY     RMS[dD(SAO)]   TOL
  17  -3300.2070601086    -18183.053933     8207.3493145    0.146D-07 0.732D-14
                            Exc = -353.598991034     Coul =  8560.94830555    
                              N = 353.99968642    
                            current damping = 0.400
 
          Norm of current diis error: 0.26442E-04
          max. resid. norm for Fia-block=  3.238D-07 for orbital    142a         
          max. resid. fock norm         =  6.111D-07 for orbital    178a         

 DENSITY CONVERGED !


 ITERATION  ENERGY          1e-ENERGY        2e-ENERGY     RMS[dD(SAO)]   TOL
  18  -3300.2070601085    -18183.054010     8207.3493923    0.380D-08 0.732D-14
                            Exc = -353.598992888     Coul =  8560.94838520    
                              N = 353.99968642    
                            current damping = 0.450
 
          Norm of current diis error: 0.92241E-05
          max. resid. norm for Fia-block=  1.484D-07 for orbital    167a         
          max. resid. fock norm         =  2.798D-07 for orbital   3579a         

 ENERGY & DENSITY CONVERGED !


 ITERATION  ENERGY          1e-ENERGY        2e-ENERGY     RMS[dD(SAO)]   TOL
  19  -3300.2068858139    -18183.054047     8207.3496029    0.249D-08 0.732D-14
                            Exc = -353.598818656     Coul =  8560.94842157    
                              N = 353.99998359    
                            current damping = 0.300
 
          Norm of current diis error: 0.42335E-05
          max. resid. norm for Fia-block=  7.826D-08 for orbital    170a         
          max. resid. fock norm         =  1.503D-07 for orbital   3581a         

 End of SCF iterations

   convergence criteria satisfied after   19 iterations


                  ------------------------------------------ 
                 |  total energy      =  -3300.20688581386  |
                  ------------------------------------------ 
                 :  kinetic energy    =   2736.86658831918  :
                 :  potential energy  =  -6037.07347413303  :
                 :  virial theorem    =      1.82930152048  :
                 :  wavefunction norm =      1.00000000000  :
                  .......................................... 


 orbitals $scfmo  will be written to file mos

    irrep                173a        174a        175a        176a        177a   
 eigenvalues H         -0.24880    -0.24880    -0.24112    -0.24112    -0.23517
            eV          -6.7704     -6.7703     -6.5613     -6.5612     -6.3993
 occupation              2.0000      2.0000      2.0000      2.0000      2.0000 

    irrep                178a        179a        180a        181a        182a   
 eigenvalues H         -0.11449    -0.09449    -0.09449    -0.08585    -0.08584
            eV          -3.1154     -2.5712     -2.5711     -2.3361     -2.3360
 
 
 ! grave: sending quit signal to master process
 
 
 
 
 ==============================================================================
                           electrostatic moments
 ==============================================================================

 reference point for electrostatic moments:    0.00000   0.00000   0.00000

 
              nuc           elec       ->  total
 ------------------------------------------------------------------------------
                          charge      
 ------------------------------------------------------------------------------
         354.000000    -354.000000      -0.000000
 
 ------------------------------------------------------------------------------
                       dipole moment  
 ------------------------------------------------------------------------------
   x      -0.000000      -0.000082      -0.000082
   y       0.000000      -0.000000      -0.000000
   z    1495.153607   -1495.664060      -0.510452
 
   | dipole moment | =     0.5105 a.u. =     1.2974 debye 
 
 ------------------------------------------------------------------------------
                     quadrupole moment
 ------------------------------------------------------------------------------
  xx   11030.127188  -11251.934739    -221.807552
  yy   11030.127188  -11251.933031    -221.805843
  zz   10482.941770  -10704.524693    -221.582923
  xy      -0.000000       0.000000       0.000000
  xz      -0.000000       0.001116       0.001116
  yz       0.000000      -0.000000      -0.000000
 
     1/3  trace=    -221.732106
     anisotropy=       0.223787
 
 ==============================================================================
 

    ridft profiling
  --------------------------------------------------------------------
             module   cpu total (s)       %  wall total (s)       %

               RIDFT          9194.3  100.00          9207.0  100.00
         Ridft_b_scf           263.0    2.86           263.0    2.86
        b_scf_prelim             0.0    0.00             0.0    0.00
        b_scf_molinp             0.0    0.00             0.0    0.00
         b_scf_init0             0.0    0.00             0.0    0.00
        b_scf_auxbas             0.0    0.00             0.0    0.00
      b_scf_symmetry             0.0    0.00             0.0    0.00
         b_scf_cosmo             0.0    0.00             0.0    0.00
        b_scf_params            20.3    0.22            20.3    0.22
          b_scf_ri-j           126.4    1.37           126.4    1.37
    b_scf_ri-j_auxpq           126.3    1.37           126.3    1.37
     ri-j_auxpq_chol             3.7    0.04             3.7    0.04
         b_scf_1elec             5.4    0.06             5.4    0.06
       b_scf_moinput           110.8    1.21           110.8    1.20
     moinput_orthmos           109.2    1.19           109.1    1.19
    b_scf_dft-dstmax             0.0    0.00             0.0    0.00
           Ridft_scf          8928.7   97.11          8941.4   97.11
          Scf_b_loop             0.0    0.00             0.0    0.00
                noga             0.0    0.00             0.0    0.00
            Scf_loop          8919.8   97.01          8931.9   97.01
     scf_loop_mkdmat            27.7    0.30            27.8    0.30
       scf_loop_ri-j           902.3    9.81           905.1    9.83
      parlp1.bc.dens             2.1    0.02             2.1    0.02
        parlp1.gs.gp           109.5    1.19           109.4    1.19
        parlp2.bc.gq             0.0    0.00             0.0    0.00
        scf_loop_dft          6692.9   72.79          6689.2   72.65
      pardft.bc.dens             0.0    0.00             0.0    0.00
        dft_grid_con            11.2    0.12            11.2    0.12
          dft_xcmrhf          6572.2   71.48          6568.5   71.34
          dft_getval            68.7    0.75            68.7    0.75
          funct2 dst             0.8    0.01             0.8    0.01
      funct2 f2loop1            14.3    0.16            14.3    0.16
      funct2 f2loop2            31.5    0.34            31.4    0.34
          funct2 s+c            21.2    0.23            21.2    0.23
        funct2 cmf_2            19.1    0.21            19.1    0.21
          dft_mkdens          3560.5   38.73          3558.7   38.65
        dft_mgga-fun             1.8    0.02             1.8    0.02
          dft_mkfock          2940.2   31.98          2938.4   31.91
     pardft.red.fock           571.4    6.21           571.1    6.20
     scf_loop_energy             0.2    0.00             0.3    0.00
     scf_loop_mkfock             0.3    0.00             0.3    0.00
       scf_loop_diis           698.6    7.60           699.7    7.60
       scf_loop_diag           347.3    3.78           347.2    3.77
         diag_tritrn           121.2    1.32           121.2    1.32
          diag_rdiag           225.4    2.45           225.3    2.45
     scf_loop_modump           145.1    1.58           156.7    1.70
      scf_loop_ortho            98.6    1.07            98.8    1.07
          Scf_a_loop             8.9    0.10             9.5    0.10
         Ridft_a_scf             2.7    0.03             2.7    0.03
         a_scf_fanal             2.1    0.02             2.1    0.02
 


    ------------------------------------------------------------------------
         total  cpu-time :  2 hours 33 minutes and 25 seconds
         total wall-time :  2 hours 33 minutes and 38 seconds
    ------------------------------------------------------------------------


   ****  ridft : all done  ****


    2018-01-15 16:55:31.822 

