 operating system is UNIX !

 ridft (gplogin2.gp.local) : TURBOMOLE V7.3 ( 22118 ) 1 Jul 2018 at 20:38:15
 Copyright (C) 2018 TURBOMOLE GmbH, Karlsruhe


    2019-02-08 23:35:03.628 



                                  r i d f t

                        DFT program with RI approximation 
                                for coulomb part 




                                                 
                                 References:     
                                                 
          TURBOMOLE:                             
              R. Ahlrichs, M. Baer, M. Haeser, H. Horn, and
              C. Koelmel
              Electronic structure calculations on workstation
              computers: the program system TURBOMOLE
              Chem. Phys. Lett. 162: 165 (1989)
          Density Functional:                              
              O. Treutler and R. Ahlrichs                      
              Efficient Molecular Numerical Integration Schemes
              J. Chem. Phys. 102: 346 (1995)                   
          Parallel Version:                                
              Performance of parallel TURBOMOLE for Density    
              Functional Calculations                          
              M. v. Arnim and R. Ahlrichs                      
              J. Comp. Chem. 19: 1746 (1998)                   
          RI-J Method:                                     
              Auxiliary Basis Sets to approximate Coulomb      
              Potentials                                       
              Chem. Phys. Lett. 240: 283 (1995)                
              K. Eichkorn, O. Treutler, H. Oehm, M. Haeser     
              and R. Ahlrichs                                  
              Chem. Phys. Lett. 242: 652 (1995)                
                                                           
              Auxiliary Basis Sets for Main Row Atoms and their
              Use to approximate Coulomb Potentials            
              K. Eichkorn, F. Weigend, O. Treutler and         
              R. Ahlrichs                                      
              Theo. Chem. Acc. 97: 119 (1997)                   
                                                           
              Accurate Coulomb-fitting basis sets for H to Rn 
              F. Weigend                                        
              Phys. Chem. Chem. Phys. 8: 1057 (2006)            
                                                           
          Multipole accelerated RI-J (MARI-J):             
              Fast evaluation of the Coulomb potential for     
              electron densities using multipole accelerated   
              resolution of identity approximation             
              M. Sierka, A. Hogekamp and R. Ahlrichs           
              J. Chem. Phys. 118: 9136 (2003)                  
          RI-JK Method:                                     
              A fully direct RI-HF algorithm: Implementation,
              optimised auxiliary basis sets, demonstration of
              accuracy and efficiency                         
              F. Weigend                                      
              Phys. Chem. Chem. Phys. 4: 4285 (2002)           
          Two-component HF and DFT with spin-orbit coupling:  
              Self-consistent treatment of spin-orbit         
              interactions with efficient Hartree-Fock and    
              density functional methods                      
              M. K. Armbruster, F. Weigend, C. van Wüllen and 
              W. Klopper                                      
              Phys. Chem. Chem. Phys. 10: 1748 (2008)         
          Two-component difference density and DIIS algorithm 
              Efficient two-component self-consistent field   
              procedures and gradients: implementation in     
              TURBOMOLE and application to Au20-              
              A. Baldes, F. Weigend                           
              Mol. Phys. 111: 2617 (2013)                     
          Relativistic all-electron 2c calculations           
              An efficient implementation of two-component    
              relativistic exact-decoupling methods for large 
              molecules                                       
              D. Peng, N. Middendorf, F. Weigend, M. Reiher   
              J. Chem. Phys. 138: 184105 (2013)               
          Finite nucleus model and SNSO approximation         
              Efficient implementation of one- and two-       
              component analytical energy gradients in exact  
              two-component theory                            
              Y. J. Franzke, N. Middendorf, F. Weigend        
              J. Chem. Phys. 148: 104110 (2018)               
                                         




              +--------------------------------------------------+
              |      general information about current run       |
              +--------------------------------------------------+

 
no calculation of wave function, analysis of properties only

 DENSITY CONVERGENCE CHECK SWITCHED ON !
 SCF CONVERGENCE IF RMS(delta[D]) <     0.1000000000E-06

 PBE functional
 exchange:    LDA + PBE
 correlation: LDA (PW) + PBE
 A DFT calculation using the RI-J approximation will be carried out.
 Allocatable memory for RI due to $ricore (MB):                110000


              +--------------------------------------------------+
              | Atomic coordinate, charge and isotop information |
              +--------------------------------------------------+

                    atomic coordinates            atom    charge  isotop
          1.29102896    2.23612775    5.35940406    c      6.000     0
          2.68444732    0.00000000    5.34775669    c      6.000     0
          1.29102896   -2.23612775    5.35940406    c      6.000     0
         -1.34222366   -2.32479958    5.34775669    c      6.000     0
         -2.58205792    0.00000000    5.35940406    c      6.000     0
         -1.34222366    2.32479958    5.34775669    c      6.000     0
         -2.74209098    4.74944089    5.17369628    c      6.000     0
         -3.47165961    6.01309083    7.36565771    c      6.000     0
         -4.78742225    8.29205857    7.27396970    c      6.000     0
         -5.38971831    9.33526596    4.93546263    c      6.000     0
         -4.67190964    8.09198487    2.72597715    c      6.000     0
         -3.35880377    5.81761878    2.81855316    c      6.000     0
         -2.74209098   -4.74944089    5.17369628    c      6.000     0
         -3.35880377   -5.81761878    2.81855316    c      6.000     0
         -4.67190964   -8.09198487    2.72597715    c      6.000     0
         -5.38971831   -9.33526596    4.93546263    c      6.000     0
         -4.78742225   -8.29205857    7.27396970    c      6.000     0
         -3.47165961   -6.01309083    7.36565771    c      6.000     0
          5.48418196    0.00000000    5.17369628    c      6.000     0
          6.71760754    0.00000000    2.81855316    c      6.000     0
          9.34381929    0.00000000    2.72597715    c      6.000     0
         10.77943663    0.00000000    4.93546263    c      6.000     0
          9.57484449    0.00000000    7.27396970    c      6.000     0
          6.94331922    0.00000000    7.36565771    c      6.000     0
          2.56458096    4.44198451    5.30703898    f      9.000     0
         -5.12916191    0.00000000    5.30703898    f      9.000     0
          2.56458096   -4.44198451    5.30703898    f      9.000     0
         -2.90994879    5.04017915    9.65013893    f      9.000     0
         -5.47160393    9.47709601    9.40663768    f      9.000     0
         -6.65606662   11.52864556    4.82298142    f      9.000     0
         -5.29334333    9.16833958    0.50315811    f      9.000     0
         -5.29334333   -9.16833958    0.50315811    f      9.000     0
         -6.65606662  -11.52864556    4.82298142    f      9.000     0
         -5.47160393   -9.47709601    9.40663768    f      9.000     0
         -2.90994879   -5.04017915    9.65013893    f      9.000     0
         10.58668665    0.00000000    0.50315811    f      9.000     0
         13.31213324    0.00000000    4.82298142    f      9.000     0
         10.94320787    0.00000000    9.40663768    f      9.000     0
          5.81989758    0.00000000    9.65013893    f      9.000     0
         -2.31430977    4.00850211   -0.59311698    i     53.000     0
         -2.31430977   -4.00850211   -0.59311698    i     53.000     0
          4.62861954    0.00000000   -0.59311698    i     53.000     0
          3.99736087   -2.26207693   -6.71003915    c      6.000     0
          5.92734477   -2.13882400   -5.97866723    h      1.000     0
          4.10220135   -2.23748546   -8.79875309    h      1.000     0
          2.68582355   -4.65198285   -5.81886616    c      6.000     0
          3.64577576   -6.31466884   -6.59083899    h      1.000     0
          2.75180702   -4.76626957   -3.75428211    h      1.000     0
         -0.03966435   -4.59285453   -6.71003915    c      6.000     0
         -0.11338143   -4.67135331   -8.79875309    h      1.000     0
         -1.11139647   -6.20264315   -5.97866723    h      1.000     0
         -3.95769652   -2.33077759   -6.71003915    c      6.000     0
         -4.81594831   -4.06381915   -5.97866723    h      1.000     0
         -3.98881992   -2.43386785   -8.79875309    h      1.000     0
         -5.37164710    0.00000000   -5.81886616    c      6.000     0
         -5.50361403    0.00000000   -3.75428211    h      1.000     0
         -7.29155151    0.00000000   -6.59083899    h      1.000     0
         -3.95769652    2.33077759   -6.71003915    c      6.000     0
         -3.98881992    2.43386785   -8.79875309    h      1.000     0
         -4.81594831    4.06381915   -5.97866723    h      1.000     0
         -0.03966435    4.59285453   -6.71003915    c      6.000     0
         -1.11139647    6.20264315   -5.97866723    h      1.000     0
         -0.11338143    4.67135331   -8.79875309    h      1.000     0
          2.68582355    4.65198285   -5.81886616    c      6.000     0
          3.64577576    6.31466884   -6.59083899    h      1.000     0
          2.75180702    4.76626957   -3.75428211    h      1.000     0
          3.99736087    2.26207693   -6.71003915    c      6.000     0
          4.10220135    2.23748546   -8.79875309    h      1.000     0
          5.92734477    2.13882400   -5.97866723    h      1.000     0
          0.00000000    0.00000000   -6.67566966    c      6.000     0
          0.00000000    0.00000000   -8.80405438    h      1.000     0
          2.63800737    0.00000000   -5.79850129    n      7.000     0
         -1.31900368   -2.28458139   -5.79850129    n      7.000     0
         -1.31900368    2.28458139   -5.79850129    n      7.000     0
 
       center of nuclear mass  :   -0.00000000   -0.00000000    1.58306549
       center of nuclear charge:   -0.00000000    0.00000000    1.50316784

              +--------------------------------------------------+
              |               basis set information              |
              +--------------------------------------------------+

              we will work with the 1s 3p 5d 7f 9g ... basis set
              ...i.e. with spherical basis functions...

   type   atoms  prim   cont   basis
   ---------------------------------------------------------------------------
    c       34     50     30   cc-pVTZ   [4s3p2d1f|18s5p2d1f]
    f       15     50     30   cc-pVTZ   [4s3p2d1f|18s5p2d1f]
    i        3    133     39   cc-pVTZ-PP   [5s4p3d1f|21s20p9d1f]
    h       19     16     14   cc-pVTZ   [3s2p1d|5s2p1d]
    n        3     50     30   cc-pVTZ   [4s3p2d1f|18s5p2d1f]
   ---------------------------------------------------------------------------
   total:   74   3303   1943
   ---------------------------------------------------------------------------

   total number of primitive shells          :  137
   total number of contracted shells         :  673
   total number of cartesian basis functions : 2240
   total number of SCF-basis functions       : 1943


 integral neglect threshold       :  0.15E-10
 integral storage threshold THIZE :  0.10E-04
 integral storage threshold THIME :         5

 number of unique ecp types :                     1
 RI-J AUXILIARY BASIS SET information:

              we will work with the 1s 3p 5d 7f 9g ... basis set
              ...i.e. with spherical basis functions...

   type   atoms  prim   cont   basis
   ---------------------------------------------------------------------------
    c       34     70     49   cc-pVTZ   [6s4p3d1f1g|12s5p4d2f1g]
    f       15     70     49   cc-pVTZ   [6s4p3d1f1g|12s5p4d2f1g]
    i        3    140    140   cc-pVTZ-PP   [8s8p7d5f3g1h|8s8p7d5f3g1h]
    h       19     16     11   cc-pVTZ   [3s1p1d|5s2p1d]
    n        3     70     49   cc-pVTZ   [6s4p3d1f1g|12s5p4d2f1g]
   ---------------------------------------------------------------------------
   total:   74   4364   3177
   ---------------------------------------------------------------------------

   total number of primitive shells          :  112
   total number of contracted shells         :  971
   total number of cartesian basis functions : 3970
   total number of SCF-basis functions       : 3177


 symmetry group of the molecule :   c1 

 the group has the following generators :
   c1(z)

    1 symmetry operations found

 there are 1 real representations :   a   

 maximum number of shells which are related by symmetry :  1


    mo occupation :
   irrep   mo's   occupied
    a     1943      227
 
 number of basis functions   :                   1943
 number of occupied orbitals :                    227
 
  
           ------------------
           density functional
           ------------------
 PBE functional
 exchange:    LDA + PBE
 correlation: LDA (PW) + PBE

 iterations will be done with small grid
  
 spherical integration : Lebedev's spherical grid
 spherical gridsize    :                     5
    i.e. gridpoints    :                   590
 value for diffuse not defined
 radial integration    : Chebyshev 2nd kind (scaling 3)
 radial gridsize       :                     8
 integration cells     :                    74
 partition function    : becke
 partition sharpness   :                     3
  

 biggest AO integral is expected to be     5.499692413
  
           ------------------------
               RI-J - INFORMATION
           ------------------------
 Contributions to RI integral batches: 
  neglected integral batches:                128484
  direct contribution:                            0
  memory contribution:                 98317
 Memory core needed for (P|Q) and Cholesky     78 MByte
 Memory core minimum needed except of (P|Q)    12 MByte
 Total minimum memory core needed (sum)        89 MByte
  
 ****************************************
 Memory allocated for RI-J 28944 MByte
 ****************************************
                                            

          ------------------------
          nuclear repulsion energy  :   10416.1814926    
          ------------------------


         -----------------
         -S,T+V- integrals
         -----------------

 1e-integrals will be neglected if expon. factor < 0.149195E-11


          ----------------
          -ecp-  integrals
          ----------------
 
   Difference densities algorithm switched on.
   The maximal number of linear combinations of
   difference densities is                    20 .

 DIIS switched on: error vector is FDS-SDF
 Max. Iterations for DIIS is     :   4
 DIIS matrix (see manual) 
    Scaling factor of diagonals  :  1.200
    threshold for scaling factor :  0.000

 scf convergence criterion : increment of total energy < .1000000D-05
                  and increment of one-electron energy < .1000000D-02

  MOs are in ASCII format !


 closed shell shift switched on 
 all occupied orbitals are shifted by    0.40000


 reading orbital data $scfmo  from file mos
 orbital characterization : scfconv=6
 
 
 
 ==============================================================================
                           electrostatic moments
 ==============================================================================

 reference point for electrostatic moments:    0.00000   0.00000   0.00000

 
              nuc           elec       ->  total
 ------------------------------------------------------------------------------
                          charge      
 ------------------------------------------------------------------------------
         454.000000    -454.000000      -0.000000
 
 ------------------------------------------------------------------------------
                       dipole moment  
 ------------------------------------------------------------------------------
   x      -0.000000       0.000082       0.000082
   y       0.000000       0.000000       0.000000
   z     858.526122    -861.932643      -3.406521
 
   | dipole moment | =     3.4065 a.u. =     8.6585 debye 
 
 ------------------------------------------------------------------------------
                     quadrupole moment
 ------------------------------------------------------------------------------
  xx   12052.426718  -12334.919517    -282.492799
  yy   12052.426718  -12334.921800    -282.495081
  zz   14615.844160  -14885.634889    -269.790729
  xy       0.000000       0.000000       0.000000
  xz      -0.000000       0.002286       0.002286
  yz      -0.000000       0.000000       0.000000
 
     1/3  trace=    -278.259536
     anisotropy=      12.703212



 ==============================================================================
                  MULLIKEN POPULATION ANALYSIS (CAO-BASIS)
 ==============================================================================

         BRUTTO POPULATIONS  
 
       values displayed are larger than   0.010000
 
 
 atomic populations from total density:
 
 atom      charge    n(s)      n(p)      n(d)      n(f)      n(g)
     1c      0.39853   3.07630   2.33402   0.17085   0.02030
     2c     -0.30566   3.25912   2.94710   0.08865   0.01080
     3c      0.39853   3.07630   2.33402   0.17085   0.02030
     4c     -0.30480   3.25928   2.94608   0.08864   0.01080
     5c      0.39845   3.07639   2.33402   0.17085   0.02029
     6c     -0.30480   3.25928   2.94608   0.08864   0.01080
     7c     -0.12598   3.22429   2.77707   0.11371   0.01092
     8c      0.20731   3.09038   2.52482   0.15794   0.01955
     9c      0.11083   3.10612   2.61739   0.14618   0.01949
    10c      0.12320   3.10651   2.60273   0.14813   0.01944
    11c      0.15064   3.09113   2.56791   0.17075   0.01956
    12c     -0.14294   3.27186   2.75292   0.10951   0.00864
    13c     -0.12598   3.22429   2.77707   0.11371   0.01092
    14c     -0.14294   3.27186   2.75292   0.10951   0.00864
    15c      0.15064   3.09113   2.56791   0.17075   0.01956
    16c      0.12320   3.10651   2.60273   0.14813   0.01944
    17c      0.11083   3.10612   2.61739   0.14618   0.01949
    18c      0.20731   3.09038   2.52482   0.15794   0.01955
    19c     -0.12703   3.22437   2.77797   0.11377   0.01092
    20c     -0.14253   3.27171   2.75265   0.10953   0.00864
    21c      0.15073   3.09108   2.56788   0.17075   0.01956
    22c      0.12329   3.10649   2.60266   0.14813   0.01944
    23c      0.11093   3.10615   2.61728   0.14616   0.01949
    24c      0.20784   3.09023   2.52446   0.15792   0.01955
    25f     -0.12207   3.89460   5.21126   0.01549   0.00072
    26f     -0.12215   3.89461   5.21133   0.01549   0.00072
    27f     -0.12207   3.89460   5.21126   0.01549   0.00072
    28f     -0.11568   3.89271   5.20663   0.01561   0.00073
    29f     -0.10478   3.88777   5.20029   0.01597   0.00075
    30f     -0.10512   3.88702   5.20141   0.01595   0.00075
    31f     -0.11586   3.89151   5.20798   0.01565   0.00073
    32f     -0.11586   3.89151   5.20798   0.01565   0.00073
    33f     -0.10512   3.88702   5.20141   0.01595   0.00075
    34f     -0.10478   3.88777   5.20029   0.01597   0.00075
    35f     -0.11568   3.89271   5.20663   0.01561   0.00073
    36f     -0.11586   3.89151   5.20798   0.01565   0.00073
    37f     -0.10512   3.88701   5.20141   0.01595   0.00075
    38f     -0.10478   3.88777   5.20029   0.01597   0.00075
    39f     -0.11569   3.89271   5.20664   0.01561   0.00073
    40i      0.06936   3.93037  10.88520  10.09969   0.01538
    41i      0.06936   3.93037  10.88520  10.09969   0.01538
    42i      0.06932   3.93035  10.88525  10.09970   0.01538
    43c     -0.11662   3.20167   2.78154   0.12559   0.00783
    44h      0.12272   0.84164   0.03287   0.00278
    45h      0.07820   0.88593   0.03313   0.00274
    46c     -0.17500   3.21197   2.86649   0.09097   0.00557
    47h      0.09840   0.86411   0.03479   0.00270
    48h      0.12363   0.83678   0.03687   0.00271
    49c     -0.11545   3.20118   2.78101   0.12544   0.00782
    50h      0.07807   0.88602   0.03316   0.00274
    51h      0.12218   0.84214   0.03291   0.00278
    52c     -0.11490   3.20116   2.78045   0.12546   0.00783
    53h      0.12201   0.84228   0.03293   0.00278
    54h      0.07787   0.88623   0.03315   0.00275
    55c     -0.17520   3.21169   2.86688   0.09104   0.00557
    56h      0.12365   0.83679   0.03685   0.00272
    57h      0.09848   0.86405   0.03477   0.00270
    58c     -0.11490   3.20116   2.78045   0.12546   0.00783
    59h      0.07787   0.88623   0.03315   0.00275
    60h      0.12201   0.84228   0.03293   0.00278
    61c     -0.11545   3.20118   2.78101   0.12544   0.00782
    62h      0.12218   0.84214   0.03291   0.00278
    63h      0.07807   0.88603   0.03316   0.00274
    64c     -0.17500   3.21197   2.86649   0.09097   0.00557
    65h      0.09840   0.86411   0.03479   0.00270
    66h      0.12363   0.83678   0.03687   0.00271
    67c     -0.11662   3.20167   2.78154   0.12559   0.00783
    68h      0.07820   0.88593   0.03313   0.00274
    69h      0.12272   0.84164   0.03287   0.00278
    70c      0.27239   3.14262   2.34882   0.22132   0.01485
    71h      0.02878   0.93233   0.03562   0.00327
    72n     -0.23887   3.54383   3.60807   0.08273   0.00425
    73n     -0.23920   3.54381   3.60842   0.08272   0.00425
    74n     -0.23920   3.54381   3.60842   0.08272   0.00425
 
 moments (from total density versus population analysis)
 <charge> =            -0.000000           -0.000000
 <x   >   =             0.000082           -0.000359
 <y   >   =             0.000000           -0.000000
 <z   >   =            -3.406521           -3.710348
 
 
 ==============================================================================
 


    ------------------------------------------------------------------------
         total  cpu-time :  14.77 seconds
         total wall-time :  15.11 seconds
    ------------------------------------------------------------------------

   ****  ridft : all done  ****


    2019-02-08 23:35:18.712 

