Using Slurm to start processes with PMI2
STARTING ridft ON 8 PROCESSORS!
RUNNING PROGRAM /beegfs/modfac/apps/TURBOMOLE/7.0_intel_GA/bin/em64t-unknown-linux-gnu_mpi/ridft_mpi.
PLEASE WAIT UNTIL ridft HAS FINISHED.
Look for the output in slave1.output.
  this is node-proc. number 1 running on node c-16-28.local
  the total number of node-proc. spawned is            8
  parallel platform: MPP, or cluster with fast interconnect

 ridft (c-16-28.local) : TURBOMOLE V7.0.2( ) 15 Jan 2016 at 17:47:42
 Copyright (C) 2016 TURBOMOLE GmbH, Karlsruhe


    2018-02-01 20:00:22.668 



                                  r i d f t

                        DFT program with RI approximation 
                                for coulomb part 




                                                 
                                 References:     
                                                 
          TURBOMOLE:                             
              R. Ahlrichs, M. Baer, M. Haeser, H. Horn, and
              C. Koelmel
              Electronic structure calculations on workstation
              computers: the program system TURBOMOLE
              Chem. Phys. Lett. 162: 165 (1989)
          Density Functional:                              
              O. Treutler and R. Ahlrichs                      
              Efficient Molecular Numerical Integration Schemes
              J. Chem. Phys. 102: 346 (1995)                   
          Parallel Version:                                
              Performance of parallel TURBOMOLE for Density    
              Functional Calculations                          
              M. v. Arnim and R. Ahlrichs                      
              J. Comp. Chem. 19: 1746 (1998)                   
          RI-J Method:                                     
              Auxiliary Basis Sets to approximate Coulomb      
              Potentials                                       
              Chem. Phys. Lett. 240: 283 (1995)                
              K. Eichkorn, O. Treutler, H. Oehm, M. Haeser     
              and R. Ahlrichs                                  
              Chem. Phys. Lett. 242: 652 (1995)                
                                                           
              Auxiliary Basis Sets for Main Row Atoms and their
              Use to approximate Coulomb Potentials            
              K. Eichkorn, F. Weigend, O. Treutler and         
              R. Ahlrichs                                      
              Theo. Chem. Acc. 97: 119 (1997)                   
                                                           
              Accurate Coulomb-fitting basis sets for H to Rn 
              F. Weigend                                        
              Phys. Chem. Chem. Phys. 8: 1057 (2006)            
                                                           
          Multipole accelerated RI-J (MARI-J):             
              Fast evaluation of the Coulomb potential for     
              electron densities using multipole accelerated   
              resolution of identity approximation             
              M. Sierka, A. Hogekamp and R. Ahlrichs           
              J. Chem. Phys. 118: 9136 (2003)                  
          RI-JK Method:                                     
              A fully direct RI-HF algorithm: Implementation,
              optimised auxiliary basis sets, demonstration of
              accuracy and efficiency                         
              F. Weigend                                      
              Phys. Chem. Chem. Phys. 4: 4285 (2002)           
          Two-component HF and DFT with spin-orbit coupling:  
              Self-consistent treatment of spin-orbit         
              interactions with efficient Hartree-Fock and    
              density functional methods                      
              M. K. Armbruster, F. Weigend, C. van Wüllen and 
              W. Klopper                                      
              Phys. Chem. Chem. Phys. 10: 1748 (2008)         
          Relativistic all-electron 2c calculations           
              An efficient implementation of two-component    
              relativistic exact-decoupling methods for large 
              molecules                                       
              D. Peng, N. Middendorf, F. Weigend, M. Reiher   
              J. Chem. Phys. 138, 184105 (2013)               
                                         


 


              +--------------------------------------------------+
              |      general information about current run       |
              +--------------------------------------------------+

 

 SCF run will be profiled !


 DENSITY CONVERGENCE CHECK SWITCHED ON !
 SCF CONVERGENCE IF RMS(delta[D]) <     0.1000000000E-06

 PBE functional
 exchange:    LDA + PBE
 correlation: LDA (PW) + PBE
 A DFT calculation using the RI-J approximation will be carried out.
 Allocatable memory for RI due to $ricore (MB):        5000


              +--------------------------------------------------+
              | Atomic coordinate, charge and isotop information |
              +--------------------------------------------------+

                    atomic coordinates            atom    charge  isotop
         -7.79991642  -15.63473798  -28.77086683    c      6.000     0
         -9.44353596  -14.51838793  -30.51957404    c      6.000     0
        -11.44494113  -15.96913824  -31.47011385    c      6.000     0
        -11.83016747  -18.44314880  -30.64699828    c      6.000     0
        -10.20612172  -19.51516020  -28.86723342    c      6.000     0
         -8.17614389  -18.10903766  -27.94535698    c      6.000     0
         -9.10964214  -11.79216130  -31.29037444    c      6.000     0
        -10.76593230   -9.93795446  -29.70435186    c      6.000     0
        -10.23232277   -7.21451328  -30.57516034    c      6.000     0
        -15.00213704  -11.41694673  -28.34230151    c      6.000     0
        -17.75826292  -11.67498127  -29.09072755    c      6.000     0
         -8.45505046   -5.97168765  -29.21782297    n      7.000     0
        -13.45629382  -10.37980455  -30.09464456    n      7.000     0
        -14.23775604  -12.17240254  -26.25344927    o      8.000     0
        -11.31875089   -6.33839467  -32.44551489    o      8.000     0
        -18.20305154  -13.68801204  -29.26426677    h      1.000     0
         -8.06460658   -4.16154922  -29.69971447    h      1.000     0
        -18.93931529  -10.89740432  -27.58397142    h      1.000     0
        -18.21795392  -10.73345357  -30.87238024    h      1.000     0
        -14.18139307   -9.56058182  -31.67411167    h      1.000     0
        -10.36090729  -10.18408940  -27.69687689    h      1.000     0
         -9.59015981  -11.52559464  -33.28767134    h      1.000     0
         -7.13695136  -11.21816644  -31.04095704    h      1.000     0
        -12.71235777  -15.14211094  -32.86020017    h      1.000     0
         -6.21401668  -14.54920559  -28.04155916    h      1.000     0
        -13.39752144  -19.53709425  -31.39879558    h      1.000     0
         -6.89874194  -18.93093247  -26.56472118    h      1.000     0
        -10.51402235  -21.43415441  -28.20806671    h      1.000     0
         -7.88050568   -6.63699975  -27.49829502    h      1.000     0
 
       center of nuclear mass  :  -11.35528378  -12.39897984  -29.66960467
       center of nuclear charge:  -11.37052466  -12.41911981  -29.67099026

              +--------------------------------------------------+
              |               basis set information              |
              +--------------------------------------------------+

              we will work with the 1s 3p 5d 7f 9g ... basis set
              ...i.e. with spherical basis functions...

   type   atoms  prim   cont   basis
   ---------------------------------------------------------------------------
    c       11     50     30   cc-pVTZ   [4s3p2d1f|18s5p2d1f]
    n        2     50     30   cc-pVTZ   [4s3p2d1f|18s5p2d1f]
    o        2     50     30   cc-pVTZ   [4s3p2d1f|18s5p2d1f]
    h       14     16     14   cc-pVTZ   [3s2p1d|5s2p1d]
   ---------------------------------------------------------------------------
   total:   29    974    646
   ---------------------------------------------------------------------------

   total number of primitive shells          :   86
   total number of contracted shells         :  234
   total number of cartesian basis functions :  735
   total number of SCF-basis functions       :  646


 integral neglect threshold       :  0.45E-13
 integral storage threshold THIZE :  0.10E-04
 integral storage threshold THIME :         5

 RI-J AUXILIARY BASIS SET information:

              we will work with the 1s 3p 5d 7f 9g ... basis set
              ...i.e. with spherical basis functions...

   type   atoms  prim   cont   basis
   ---------------------------------------------------------------------------
    c       11     70     49   cc-pVTZ   [6s4p3d1f1g|12s5p4d2f1g]
    n        2     70     49   cc-pVTZ   [6s4p3d1f1g|12s5p4d2f1g]
    o        2     70     49   cc-pVTZ   [6s4p3d1f1g|12s5p4d2f1g]
    h       14     16     11   cc-pVTZ   [3s1p1d|5s2p1d]
   ---------------------------------------------------------------------------
   total:   29   1274    889
   ---------------------------------------------------------------------------

   total number of primitive shells          :   80
   total number of contracted shells         :  295
   total number of cartesian basis functions : 1083
   total number of SCF-basis functions       :  889


 symmetry group of the molecule :   c1 

 the group has the following generators :
   c1(z)

    1 symmetry operations found

 there are 1 real representations :   a   

 maximum number of shells which are related by symmetry :  1


    mo occupation :
   irrep   mo's   occupied
    a      646       55
 
 number of basis functions   :          646
 number of occupied orbitals :           55
 
  
           ------------------
           density functional
           ------------------
 PBE functional
 exchange:    LDA + PBE
 correlation: LDA (PW) + PBE
 grinp -> nfun, dfgga, dfhybrid 
           6 T F
 iterations will be done with small grid
  
 spherical integration : Lebedev's spherical grid
 spherical gridsize    :           5
    i.e. gridpoints    :         590
 value for diffuse not defined
 radial integration    : Chebyshev 2nd kind (scaling 3)
 radial gridsize       :           8
 integration cells     :          29
 partition function    : becke
 partition sharpness   :           3
  

 <rddim> : input of entry tasksize
           from data group '$pardft' failed !

               Default values taken

 <rddim> : input of entry memdiv
           from data group '$pardft' failed !

               Default values taken
  RIDFT: memory allocation for DFT gridpoints
  MEMORY is divided by 1 as DEFAULT
 Each node can hold at most  the            1 -th part
 of the gridpoints    

 biggest AO integral is expected to be     4.866064444
  
           ------------------------
               RI-J - INFORMATION
           ------------------------
 
 
 **************************************************
 *      MEMORY ALLOCATION FOR PARALLEL RI-DFT     *
 **************************************************
 
 
MEMORY FOR (MU NU/ ALPHA), SEQUENTIAL RUN               4994 MByte
 
            DIFFERENCE IN MEMORY NEED:       DIAG./SLAVE  
 
      TOTAL DIFFERENCE :                     23 MByte
 
      difference in xcore:                    7 MByte
      difference in fatmat:                   7 MByte
      getcor calls skipped by slaves:        11 MByte
 
 
           Integral memory available for diagonal.      4994 MByte
 
           Integral memory available for slave             0 MByte
 
         MEMORY FOR (MU NU/ ALPHA) ON DIAGONALIZER      4994 MByte
 
         MEMORY FOR (MU NU/ ALPHA) ON ONE SLAVE            0 MByte
 
         TOTAL MEMORY FOR (MU NU/ ALPHA),ALL NODES      4994 MByte
 
 Contributions to RI integral batches: 
  neglected integral batches:        6498
  direct contribution:                  0
  memory contribution:       20997
 Memory core needed for (P|Q) and Cholesky      7 MByte
 Memory core minimum needed except of (P|Q)     2 MByte
 Total minimum memory core needed (sum)         8 MByte
  
 ****************************************
 Memory allocated for RI-J  5002 MByte
 ****************************************
                                            

          ------------------------
          nuclear repulsion energy  :   980.039993755    
          ------------------------

 
          -----------------
          -S integrals
          -----------------

 1e-integrals will be neglected if expon. factor < 0.454689E-14
 
          -----------------
          -T+V integrals
          -----------------

 1e-integrals will be neglected if expon. factor < 0.454689E-14
 Difference densities >>NOT<< switched on in parallel ridft!

 automatic virtual orbital shift switched on 
      shift if e(lumo)-e(homo) < 0.10000000    


 DIIS switched on: error vector is FDS-SDF
 Max. Iterations for DIIS is     :   4
 DIIS matrix (see manual) 
    Scaling factor of diagonals  :  1.200
    threshold for scaling factor :  0.000

 scf convergence criterion : increment of total energy < .1000000D-08
                  and increment of one-electron energy < .1000000D-05

  MOs are in ASCII format !


 reading orbital data $scfmo  from file mos . 

 orbital characterization : scfconv=9
 

 DSCF restart information will be dumped onto file mos


 Starting SCF iterations


 ITERATION  ENERGY          1e-ENERGY        2e-ENERGY     RMS[dD(SAO)]   TOL
   1  -687.00035214015    -2879.5637073     1212.5233614    0.000D+00 0.454D-13
                            Exc = -95.0891979180     Coul =  1307.61255937    
                              N = 110.00006978    
                            current damping = 0.700
 
          max. resid. norm for Fia-block=  5.856D-07 for orbital     55a         
          max. resid. fock norm         =  8.592D-07 for orbital    637a         

 ITERATION  ENERGY          1e-ENERGY        2e-ENERGY     RMS[dD(SAO)]   TOL
   2  -687.00035214015    -2879.5637024     1212.5233565    0.830D-08 0.454D-13
                            Exc = -95.0891983738     Coul =  1307.61255487    
                              N = 110.00006978    
                            current damping = 0.700
 
          Norm of current diis error: 0.88935E-05
          max. resid. norm for Fia-block=  1.971D-07 for orbital     55a         
          max. resid. fock norm         =  2.724D-07 for orbital    637a         

 ENERGY & DENSITY CONVERGED !


 ITERATION  ENERGY          1e-ENERGY        2e-ENERGY     RMS[dD(SAO)]   TOL
   3  -687.00034564321    -2879.5637038     1212.5233644    0.274D-08 0.454D-13
                            Exc = -95.0891916541     Coul =  1307.61255609    
                              N = 110.00001571    
                            current damping = 0.750
 
          Norm of current diis error: 0.42461E-05
          max. resid. norm for Fia-block=  8.751D-08 for orbital     55a         
          max. resid. fock norm         =  1.306D-07 for orbital    621a         

 End of SCF iterations

   convergence criteria satisfied after    3 iterations


                  ------------------------------------------ 
                 |  total energy      =   -687.00034564321  |
                  ------------------------------------------ 
                 :  kinetic energy    =    682.49071512030  :
                 :  potential energy  =  -1369.49106076351  :
                 :  virial theorem    =      1.99343576673  :
                 :  wavefunction norm =      1.00000000000  :
                  .......................................... 


 orbitals $scfmo  will be written to file mos

    irrep                 51a         52a         53a         54a         55a   
 eigenvalues H         -0.23235    -0.22854    -0.22515    -0.21017    -0.19672
            eV          -6.3225     -6.2190     -6.1266     -5.7189     -5.3532
 occupation              2.0000      2.0000      2.0000      2.0000      2.0000 

    irrep                 56a         57a         58a         59a         60a   
 eigenvalues H         -0.04605    -0.03913    -0.02740    -0.00964    -0.00442
            eV          -1.2530     -1.0647     -0.7455     -0.2623     -0.1204
 
 
 ! grave: sending quit signal to master process
 
 
 
 
 ==============================================================================
                           electrostatic moments
 ==============================================================================

 reference point for electrostatic moments:    0.00000   0.00000   0.00000

 
              nuc           elec       ->  total
 ------------------------------------------------------------------------------
                          charge      
 ------------------------------------------------------------------------------
         110.000000    -110.000000      -0.000000
 
 ------------------------------------------------------------------------------
                       dipole moment  
 ------------------------------------------------------------------------------
   x   -1250.757713    1251.465858       0.708145
   y   -1366.103179    1366.633202       0.530023
   z   -3263.808928    3263.761433      -0.047495
 
   | dipole moment | =     0.8858 a.u. =     2.2515 debye 
 
 ------------------------------------------------------------------------------
                     quadrupole moment
 ------------------------------------------------------------------------------
  xx   15168.745016  -15243.663740     -74.918724
  yy   18981.649479  -19055.251507     -73.602029
  zz   97148.631015  -97217.526387     -68.895372
  xy   15405.315746  -15413.930210      -8.614465
  xz   37043.167468  -37056.752674     -13.585206
  yz   40360.224512  -40369.840733      -9.616221
 
     1/3  trace=     -72.472042
     anisotropy=      32.921105
 
 ==============================================================================
 

    ridft profiling
  --------------------------------------------------------------------
             module   cpu total (s)       %  wall total (s)       %

               RIDFT            36.0  100.00            36.1  100.00
         Ridft_b_scf             9.7   26.94             9.7   26.91
        b_scf_prelim             0.0    0.01             0.0    0.01
        b_scf_molinp             0.0    0.06             0.0    0.06
         b_scf_init0             0.0    0.00             0.0    0.00
        b_scf_auxbas             0.0    0.05             0.0    0.05
      b_scf_symmetry             0.0    0.01             0.0    0.01
         b_scf_cosmo             0.0    0.00             0.0    0.00
        b_scf_params             0.3    0.92             0.3    0.92
          b_scf_ri-j             8.3   23.06             8.3   23.01
    b_scf_ri-j_auxpq             8.3   23.05             8.3   22.99
     ri-j_auxpq_chol             0.1    0.27             0.1    0.27
         b_scf_1elec             0.2    0.56             0.2    0.57
       b_scf_moinput             0.8    2.27             0.8    2.27
     moinput_orthmos             0.2    0.65             0.2    0.65
    b_scf_dft-dstmax             0.0    0.00             0.0    0.00
           Ridft_scf            26.2   72.77            26.2   72.75
          Scf_b_loop             0.0    0.01             0.0    0.01
                noga             0.0    0.00             0.0    0.00
            Scf_loop            25.8   71.81            25.9   71.79
     scf_loop_mkdmat             0.1    0.21             0.1    0.28
       scf_loop_ri-j             1.8    5.01             1.8    5.00
      parlp1.bc.dens             0.2    0.44             0.2    0.44
        parlp1.gs.gp             0.0    0.00             0.0    0.00
        parlp2.bc.gq             0.0    0.00             0.0    0.00
        scf_loop_dft            22.4   62.21            22.4   62.13
      pardft.bc.dens             0.0    0.00             0.0    0.00
        dft_grid_con             0.6    1.54             0.6    1.57
           dft_xcrhf            21.2   58.84            21.2   58.77
          dft_getval             2.8    7.66             2.8    7.67
          funct2 dst             0.1    0.14             0.0    0.14
      funct2 f2loop1             0.6    1.67             0.6    1.57
      funct2 f2loop2             1.2    3.35             1.2    3.39
          funct2 s+c             0.8    2.23             0.8    2.28
        funct2 cmf_2             0.7    1.92             0.7    1.97
          dft_mkdens            10.8   30.13            10.9   30.09
         dft_gga-fun             0.1    0.18             0.1    0.20
          dft_mkfock             7.4   20.65             7.4   20.60
     pardft.red.fock             7.8   21.64             7.8   21.61
     scf_loop_energy             0.0    0.01             0.0    0.01
     scf_loop_mkfock             0.0    0.01             0.0    0.00
       scf_loop_diis             0.4    1.14             0.4    1.14
       scf_loop_diag             0.6    1.61             0.6    1.61
         diag_tritrn             0.2    0.47             0.2    0.48
          diag_rdiag             0.4    1.12             0.4    1.12
     scf_loop_modump             0.6    1.58             0.6    1.57
          Scf_a_loop             0.3    0.95             0.3    0.95
         Ridft_a_scf             0.1    0.28             0.1    0.35
         a_scf_fanal             0.1    0.25             0.1    0.27
 


    ------------------------------------------------------------------------
         total  cpu-time :  36.42 seconds
         total wall-time :  36.58 seconds
    ------------------------------------------------------------------------


   ****  ridft : all done  ****


    2018-02-01 20:00:59.241 

