
 define (gplogin2.local) : TURBOMOLE V7.0( ) 18 Nov 2015 at 09:56:46
 Copyright (C) 2015 TURBOMOLE GmbH, Karlsruhe


    2016-05-09 08:20:14.854 

             OPERATING SYSTEM = unix
                    HOST NAME = gplogin2.local
   STANDARD BASIS SET LIBRARY = /export/home/magee/V7-0-branch/basen/
  ALTERNATE BASIS SET LIBRARY = /export/home/magee/V7-0-branch/basold/
 LIBRARY FOR RI-J  BASIS SETS = /export/home/magee/V7-0-branch/jbasen/
 LIBRARY FOR RI-JK BASIS SETS = /export/home/magee/V7-0-branch/jkbasen/
 LIBRARY FOR RIMP2/RICC2 SETS = /export/home/magee/V7-0-branch/cbasen/
 LIBRARY FOR RIR12 BASIS SETS = /export/home/magee/V7-0-branch/cabasen/
 LIBRARY FOR OEP   BASIS SETS = /export/home/magee/V7-0-branch/xbasen/
            STRUCTURE LIBRARY = /export/home/magee/V7-0-branch/structures/

 
 ***********************************************************
 *                                                         *
 *                       D E F I N E                       *
 *                                                         *
 *         TURBOMOLE'S  INTERACTIVE  INPUT  PROGRAM        *
 *                                                         *
 *  Quantum Chemistry Group       University of Karlsruhe  *
 *                                                         *
 ***********************************************************
 

 FILE control ALREADY EXISTS 
 I WILL PLUG IN THE NEW DATA. 

 DATA WILL BE TAKEN FROM control BY DEFAULT
 
 INPUT TITLE 

 SYMMETRY c1   AND CARTESIAN COORDINATES FOR 148 ATOMS 
 HAVE BEEN READ FROM THE DEFAULT INPUT FILE control . 

 keyword $intdef  missing in file <control>

 DEFINITIONS OF INTERNAL COORDINATES HAVE  N O T  BEEN READ. 
 SPECIFICATION OF BOND TOPOLOGY HAS BEEN READ. 
 DO YOU WANT TO CHANGE THE GEOMETRY DATA ?  DEFAULT=n  GOBACK=&


 ATOMIC ATTRIBUTE DATA (BASES,CHARGES,MASSES,ECPS) HAVE BEEN
 TAKEN FROM THE DEFAULT INPUT FILE control.
 DO YOU WANT TO CHANGE THESE DATA ? DEFAULT=n  GOBACK=&


 BASIS SETS WILL BE WRITTEN TO FILE basis BY DEFAULT


              ATOMIC COORDINATES              ATOM SHELLS CHARGE PSEUDO MASS
     4.41838757   -2.61487074  -11.98726985    c     10      6.     0 12.011
     2.83810409   -1.33048058  -10.28751789    c     10      6.     0 12.011
     2.83810409    1.33048058  -10.28751789    c     10      6.     0 12.011
     4.41838757    2.61487074  -11.98726985    c     10      6.     0 12.011
     5.95528294    1.31742257  -13.68222191    c     10      6.     0 12.011
     5.95528294   -1.31742257  -13.68222191    c     10      6.     0 12.011
     1.33579071    2.86796176   -8.48214913    c     10      6.     0 12.011
     2.60772758    4.56771373   -6.92174557    c     10      6.     0 12.011
     1.37044829    6.32434645   -5.37247250    c     10      6.     0 12.011
    -1.37044829    6.32434645   -5.37247250    c     10      6.     0 12.011
    -2.60772758    4.56771373   -6.92174557    c     10      6.     0 12.011
    -1.33579071    2.86796176   -8.48214913    c     10      6.     0 12.011
     2.78885783    8.05371042   -3.73099969    c     10      6.     0 12.011
     1.35098411    9.91335212   -2.60489299    c     10      6.     0 12.011
    -1.35098411    9.91335212   -2.60489299    c     10      6.     0 12.011
    -2.78885783    8.05371042   -3.73099969    c     10      6.     0 12.011
    -2.17055833   11.27879263   -0.45508385    c     10      6.     0 12.011
     0.00000000   12.11514762    0.87569909    c     10      6.     0 12.011
     2.17055833   11.27879263   -0.45508385    c     10      6.     0 12.011
     0.00000000   12.57410541    3.45500519    c     10      6.     0 12.011
    -2.47682625   12.52075844    4.60783261    c     10      6.     0 12.011
    -4.60635863   11.71121866    3.30382710    c     10      6.     0 12.011
    -4.48416894   10.86318516    0.71008349    c     10      6.     0 12.011
    -6.14648543    9.20495048   -0.66879298    c     10      6.     0 12.011
    -5.33333627    7.86122292   -2.77908794    c     10      6.     0 12.011
     2.47682625   12.52075844    4.60783261    c     10      6.     0 12.011
     4.60635863   11.71121866    3.30382710    c     10      6.     0 12.011
     4.48416894   10.86318516    0.71008349    c     10      6.     0 12.011
     6.14648543    9.20495048   -0.66879298    c     10      6.     0 12.011
     5.33333627    7.86122292   -2.77908794    c     10      6.     0 12.011
    -2.83810409    1.33048058  -10.28751789    c     10      6.     0 12.011
    -2.83810409   -1.33048058  -10.28751789    c     10      6.     0 12.011
    -4.41838757   -2.61487074  -11.98726985    c     10      6.     0 12.011
    -5.95528294   -1.31742257  -13.68222191    c     10      6.     0 12.011
    -5.95528294    1.31742257  -13.68222191    c     10      6.     0 12.011
    -4.41838757    2.61487074  -11.98726985    c     10      6.     0 12.011
     1.33579071   -2.86796176   -8.48214913    c     10      6.     0 12.011
     2.60772758   -4.56771373   -6.92174557    c     10      6.     0 12.011
     1.37044829   -6.32434645   -5.37247250    c     10      6.     0 12.011
    -1.37044829   -6.32434645   -5.37247250    c     10      6.     0 12.011
    -2.60772758   -4.56771373   -6.92174557    c     10      6.     0 12.011
    -1.33579071   -2.86796176   -8.48214913    c     10      6.     0 12.011
    -2.78885783   -8.05371042   -3.73099969    c     10      6.     0 12.011
    -1.35098411   -9.91335212   -2.60489299    c     10      6.     0 12.011
     1.35098411   -9.91335212   -2.60489299    c     10      6.     0 12.011
     2.78885783   -8.05371042   -3.73099969    c     10      6.     0 12.011
     2.17055833  -11.27879263   -0.45508385    c     10      6.     0 12.011
     0.00000000  -12.11514762    0.87569909    c     10      6.     0 12.011
    -2.17055833  -11.27879263   -0.45508385    c     10      6.     0 12.011
    -5.33333627   -7.86122292   -2.77908794    c     10      6.     0 12.011
    -6.14648543   -9.20495048   -0.66879298    c     10      6.     0 12.011
    -4.48416894  -10.86318516    0.71008349    c     10      6.     0 12.011
    -4.60635863  -11.71121866    3.30382710    c     10      6.     0 12.011
    -2.47682625  -12.52075844    4.60783261    c     10      6.     0 12.011
     0.00000000  -12.57410541    3.45500519    c     10      6.     0 12.011
     5.33333627   -7.86122292   -2.77908794    c     10      6.     0 12.011
     6.14648543   -9.20495048   -0.66879298    c     10      6.     0 12.011
     4.48416894  -10.86318516    0.71008349    c     10      6.     0 12.011
     4.60635863  -11.71121866    3.30382710    c     10      6.     0 12.011
     2.47682625  -12.52075844    4.60783261    c     10      6.     0 12.011
    -8.02878493    8.82001327    0.05890276    h      6      1.     0  1.008
    -6.62392473    6.48557788   -3.59047965    h      6      1.     0  1.008
     6.62392473    6.48557788   -3.59047965    h      6      1.     0  1.008
     8.02878493    8.82001327    0.05890276    h      6      1.     0  1.008
     6.37175968   11.53634340    4.34024739    h      6      1.     0  1.008
     2.66681931   12.94551218    6.60912818    h      6      1.     0  1.008
    -2.66681931   12.94551218    6.60912818    h      6      1.     0  1.008
    -6.37175968   11.53634340    4.34024739    h      6      1.     0  1.008
    -6.37175968  -11.53634340    4.34024739    h      6      1.     0  1.008
    -2.66681931  -12.94551218    6.60912818    h      6      1.     0  1.008
     2.66681931  -12.94551218    6.60912818    h      6      1.     0  1.008
     6.37175968  -11.53634340    4.34024739    h      6      1.     0  1.008
     8.02878493   -8.82001327    0.05890276    h      6      1.     0  1.008
     6.62392473   -6.48557788   -3.59047965    h      6      1.     0  1.008
    -6.62392473   -6.48557788   -3.59047965    h      6      1.     0  1.008
    -8.02878493   -8.82001327    0.05890276    h      6      1.     0  1.008
     4.66078274    4.56215793   -6.95940781    h      6      1.     0  1.008
    -4.66078274    4.56215793   -6.95940781    h      6      1.     0  1.008
     4.66078274   -4.56215793   -6.95940781    h      6      1.     0  1.008
    -4.66078274   -4.56215793   -6.95940781    h      6      1.     0  1.008
    -4.40961924    4.66820936  -11.97084813    h      6      1.     0  1.008
    -7.14193646    2.35843491  -14.99418318    h      6      1.     0  1.008
    -7.14193646   -2.35843491  -14.99418318    h      6      1.     0  1.008
    -4.40961924   -4.66820936  -11.97084813    h      6      1.     0  1.008
     4.40961924    4.66820936  -11.97084813    h      6      1.     0  1.008
     7.14193646    2.35843491  -14.99418318    h      6      1.     0  1.008
     7.14193646   -2.35843491  -14.99418318    h      6      1.     0  1.008
     4.40961924   -4.66820936  -11.97084813    h      6      1.     0  1.008
    -6.58065000    1.31967135    5.51157524    c     10      6.     0 12.011
    -5.73286217    2.69340776    3.28916282    c     10      6.     0 12.011
    -4.35712265    4.91007541    4.14082459    c     10      6.     0 12.011
    -4.35825648    4.91404384    6.88593526    c     10      6.     0 12.011
    -2.21895422    5.71589243    2.82540513    c     10      6.     0 12.011
    -4.91663276    1.37364193    1.15165580    c     10      6.     0 12.011
    -5.73074568    2.69238731    7.73444119    c     10      6.     0 12.011
    -6.58065000   -1.31967135    5.51157524    c     10      6.     0 12.011
    -4.91459186    1.37292383    9.86960496    c     10      6.     0 12.011
    -2.22254470    5.73042442    8.20674044    c     10      6.     0 12.011
     0.00000000    6.56356688    4.19736520    c     10      6.     0 12.011
    -1.37254588    4.34822204    0.60378640    c     10      6.     0 12.011
     0.00000000    6.57360133    6.83402448    c     10      6.     0 12.011
    -1.37364193    4.35657463   10.42728203    c     10      6.     0 12.011
    -2.69308651    2.22122189   11.24216974    c     10      6.     0 12.011
    -4.91459186   -1.37292383    9.86960496    c     10      6.     0 12.011
    -5.73074568   -2.69238731    7.73444119    c     10      6.     0 12.011
    -5.73286217   -2.69340776    3.28916282    c     10      6.     0 12.011
    -4.91663276   -1.37364193    1.15165580    c     10      6.     0 12.011
    -2.69212275    2.21833061   -0.21913264    c     10      6.     0 12.011
     2.21895422    5.71589243    2.82540513    c     10      6.     0 12.011
     1.37254588    4.34822204    0.60378640    c     10      6.     0 12.011
    -2.69212275   -2.21833061   -0.21913264    c     10      6.     0 12.011
    -1.32071070    0.00000000   -1.07686044    c     10      6.     0 12.011
    -4.35825648   -4.91404384    6.88593526    c     10      6.     0 12.011
    -4.35712265   -4.91007541    4.14082459    c     10      6.     0 12.011
    -2.69308651   -2.22122189   11.24216974    c     10      6.     0 12.011
    -1.31953907    0.00000000   12.09018434    c     10      6.     0 12.011
     1.37364193    4.35657463   10.42728203    c     10      6.     0 12.011
     2.22254470    5.73042442    8.20674044    c     10      6.     0 12.011
     4.35825648    4.91404384    6.88593526    c     10      6.     0 12.011
     4.35712265    4.91007541    4.14082459    c     10      6.     0 12.011
     2.69212275    2.21833061   -0.21913264    c     10      6.     0 12.011
     1.32071070    0.00000000   -1.07686044    c     10      6.     0 12.011
    -2.21895422   -5.71589243    2.82540513    c     10      6.     0 12.011
    -1.37254588   -4.34822204    0.60378640    c     10      6.     0 12.011
    -1.37364193   -4.35657463   10.42728203    c     10      6.     0 12.011
    -2.22254470   -5.73042442    8.20674044    c     10      6.     0 12.011
     1.31953907    0.00000000   12.09018434    c     10      6.     0 12.011
     2.69308651    2.22122189   11.24216974    c     10      6.     0 12.011
     5.73286217    2.69340776    3.28916282    c     10      6.     0 12.011
     4.91663276    1.37364193    1.15165580    c     10      6.     0 12.011
     2.69212275   -2.21833061   -0.21913264    c     10      6.     0 12.011
     1.37254588   -4.34822204    0.60378640    c     10      6.     0 12.011
     0.00000000   -6.56356688    4.19736520    c     10      6.     0 12.011
     0.00000000   -6.57360133    6.83402448    c     10      6.     0 12.011
     1.37364193   -4.35657463   10.42728203    c     10      6.     0 12.011
     2.69308651   -2.22122189   11.24216974    c     10      6.     0 12.011
     4.91459186    1.37292383    9.86960496    c     10      6.     0 12.011
     5.73074568    2.69238731    7.73444119    c     10      6.     0 12.011
     4.91459186   -1.37292383    9.86960496    c     10      6.     0 12.011
     6.58065000    1.31967135    5.51157524    c     10      6.     0 12.011
     4.91663276   -1.37364193    1.15165580    c     10      6.     0 12.011
     2.21895422   -5.71589243    2.82540513    c     10      6.     0 12.011
     2.22254470   -5.73042442    8.20674044    c     10      6.     0 12.011
     4.35825648   -4.91404384    6.88593526    c     10      6.     0 12.011
     5.73074568   -2.69238731    7.73444119    c     10      6.     0 12.011
     6.58065000   -1.31967135    5.51157524    c     10      6.     0 12.011
     5.73286217   -2.69340776    3.28916282    c     10      6.     0 12.011
     4.35712265   -4.91007541    4.14082459    c     10      6.     0 12.011
 

 we will work with the  1s 3p 5d  7f  9g basis set


 there are 1 real representations :   a   

    mo occupation :
   irrep   mo's   occupied
    a     3992      374
 
 number of basis functions   :         3992
 number of occupied orbitals :          374
 

 reading orbital data $scfmo  from file mos . 

 orbital characterization : scfconv=9
 

 MOLECULAR ORBITAL DATA (OCCUPATION NUMBERS,MOS) HAVE BEEN 
 TAKEN FROM THE DEFAULT INPUT FILE control . 
 DO YOU WANT TO CHANGE THESE DATA ?  DEFAULT=n  GOBACK=&


 orbitals $scfmo will be written to file mos

 ADJUSTING DATA GROUP  $drvopt  FOR CURRENT REQUIREMENTS

 FORCE CONSTANT INITIALIZATION $forceinit WILL BE ENABLED

 ADJUSTING DATA GROUP  $optimize  FOR CURRENT REQUIREMENTS


 DO YOU WANT TO DELETE DATA GROUPS LIKE
     $energy
     $grad
     $dipole
 LEFT OVER FROM PREVIOUS CALCULATIONS ? DEFAULT(n)


 FILE SPACE LOCKING WILL BE DISABLED BY DEFAULT !


 GENERAL MENU : SELECT YOUR TOPIC 
 scf    : SELECT NON-DEFAULT SCF PARAMETER 
 mp2    : OPTIONS AND DATA GROUPS FOR rimp2 and mpgrad
 cc     : OPTIONS AND DATA GROUPS FOR ricc2
 pnocc  : OPTIONS AND DATA GROUPS FOR pnoccsd
 ex     : EXCITED STATE AND RESPONSE OPTIONS
 prop   : SELECT TOOLS FOR SCF-ORBITAL ANALYSIS 
 drv    : SELECT NON-DEFAULT INPUT PARAMETER FOR EVALUATION
          OF ANALYTICAL ENERGY DERIVATIVES 
          (GRADIENTS, FORCE CONSTANTS) 
 rex    : SELECT OPTIONS FOR GEOMETRY UPDATES USING RELAX
 stp    : SELECT NON-DEFAULT STRUCTURE OPTIMIZATION PARAMETER
 e      : DEFINE EXTERNAL ELECTROSTATIC FIELD 
 dft    : DFT Parameters 
 ri     : RI Parameters 
 rijk   : RI-JK-HF Parameters 
 rirpa  : RIRPA Parameters 
 senex  : seminumeric exchange parameters 
 hybno  : hybrid Noga/Diag parameters
 dsp    : DFT dispersion correction
 trunc  : USE TRUNCATED AUXBASIS DURING ITERATIONS 
 marij  : MULTIPOLE ACCELERATED RI-J 
 dis    : DISPLAY MOLECULAR GEOMETRY 
 list   : LIST OF CONTROL FILE 
 &      : GO BACK TO OCCUPATION/ORBITAL ASSIGNMENT MENU

 * or q : END OF DEFINE SESSION 


 NO DEFINITION OF BASIS SETS ($jkbas) IN control
  TRY TO OBTAIN BASIS SETS FROM LIBRARY !

 keyword $jkbas  missing in file <control>

 c cc-pVTZ                                                               
 c d-aug-cc-pVTZ                                                         
 c d-aug-cc-pVDZ                                                         
 c cc-pVDZ-F12                                                           
 c YP-aug-cc-pVDZ                                                        

 keyword $jkbas  missing in file <control>

 h cc-pVTZ                                                               
 h d-aug-cc-pVDZ                                                         
 h d-aug-cc-pVTZ                                                         
 h cc-pVDZ-F12                                                           
 h YP-aug-cc-pVDZ                                                        

 keyword $jkbas  missing in file <control>

 c cc-pVTZ                                                               
 c d-aug-cc-pVTZ                                                         
 c d-aug-cc-pVDZ                                                         
 c cc-pVDZ-F12                                                           
 c YP-aug-cc-pVDZ                                                        

 keyword $jkbas  missing in file <control>

 h cc-pVTZ                                                               
 h d-aug-cc-pVDZ                                                         
 h d-aug-cc-pVTZ                                                         
 h cc-pVDZ-F12                                                           
 h YP-aug-cc-pVDZ                                                        


STATUS OF RI-OPTIONS:
    RI IS USED
    Memory for RI:          5000 Mb
    Filename for auxbasis: auxbasis

 ENTER RI-OPTION TO BE MODIFIED 
      m: CHANGE MEMORY FOR RI 
      f: CHANGE FILENAME 
  jkbas: ASSIGN AUXILIARY RI-JK BASIS SETS
    off: TO SWITCH OFF RI 
 Use <ENTER>, q, end, or '*' to leave this menu

 GENERAL MENU : SELECT YOUR TOPIC 
 scf    : SELECT NON-DEFAULT SCF PARAMETER 
 mp2    : OPTIONS AND DATA GROUPS FOR rimp2 and mpgrad
 cc     : OPTIONS AND DATA GROUPS FOR ricc2
 pnocc  : OPTIONS AND DATA GROUPS FOR pnoccsd
 ex     : EXCITED STATE AND RESPONSE OPTIONS
 prop   : SELECT TOOLS FOR SCF-ORBITAL ANALYSIS 
 drv    : SELECT NON-DEFAULT INPUT PARAMETER FOR EVALUATION
          OF ANALYTICAL ENERGY DERIVATIVES 
          (GRADIENTS, FORCE CONSTANTS) 
 rex    : SELECT OPTIONS FOR GEOMETRY UPDATES USING RELAX
 stp    : SELECT NON-DEFAULT STRUCTURE OPTIMIZATION PARAMETER
 e      : DEFINE EXTERNAL ELECTROSTATIC FIELD 
 dft    : DFT Parameters 
 ri     : RI Parameters 
 rijk   : RI-JK-HF Parameters 
 rirpa  : RIRPA Parameters 
 senex  : seminumeric exchange parameters 
 hybno  : hybrid Noga/Diag parameters
 dsp    : DFT dispersion correction
 trunc  : USE TRUNCATED AUXBASIS DURING ITERATIONS 
 marij  : MULTIPOLE ACCELERATED RI-J 
 dis    : DISPLAY MOLECULAR GEOMETRY 
 list   : LIST OF CONTROL FILE 
 &      : GO BACK TO OCCUPATION/ORBITAL ASSIGNMENT MENU

 * or q : END OF DEFINE SESSION 

 
 ***********************************************************
 *                                                         *
 *                       e n d   o f                       *
 *                       D E F I N E                       *
 *                                                         *
 *         TURBOMOLE'S  INTERACTIVE  INPUT  PROGRAM        *
 *                                                         *
 *  Quantum Chemistry Group       University of Karlsruhe  *
 *                                                         *
 ***********************************************************


    ------------------------------------------------------------------------
         total  cpu-time :  40.84 seconds
         total wall-time :  42.47 seconds
    ------------------------------------------------------------------------


   ****  define : all done  ****


    2016-05-09 08:20:57.322 

