STARTING dscf ON 16 PROCESSORS!
RUNNING PROGRAM /beegfs/modfac/apps/TURBOMOLE/7.2.1-official/bin/em64t-unknown-linux-gnu_mpi/dscf_mpi.
PLEASE WAIT UNTIL dscf HAS FINISHED.
Look for the output in slave1.output.
MACHINEFILE is ./hostlist
 this is node-proc. number 1 running on node c-8-27.local
 the total number of node-proc. spawned is  17
  parallel platform: MPP or cluster with fast interconnect

 dscf (c-8-27.local) : TURBOMOLE V7.2 ( 21471 ) 7 Nov 2017 at 16:15:16
 Copyright (C) 2017 TURBOMOLE GmbH, Karlsruhe


    2018-02-14 09:48:27.792 


 SCF run will be profiled !



                             d s c f - program

                   idea & directorship : reinhart ahlrichs
                   program development : marco haeser
                                         michael baer
                           dft version : oliver treutler
           parallelized version : malte v. arnim, gina corongiu, GMD 


                          quantum chemistry group
                          universitaet  karlsruhe
                                  germany




                          References             
                                                 
          TURBOMOLE:                             
              R. Ahlrichs, M. Baer, M. Haeser, H. Horn, and
              C. Koelmel
              Electronic structure calculations on workstation
              computers: the program system TURBOMOLE
              Chem. Phys. Lett. 162: 165 (1989)
          Density Functional:                              
              O. Treutler and R. Ahlrichs                      
              Efficient Molecular Numerical Integration Schemes
              J. Chem. Phys. 102: 346 (1995)                   
          Parallel Version:                                
              Performance of parallel TURBOMOLE for Density    
              Functional Calculations                          
              M. v. Arnim and R. Ahlrichs                      
              J. Comp. Chem. 19: 1746 (1998)                   
                                         




              +--------------------------------------------------+
              | Atomic coordinate, charge and isotop information |
              +--------------------------------------------------+

                    atomic coordinates            atom    charge  isotop
          2.33554567    0.00000000   -6.28856922    c      6.000     0
          0.72172330    2.22123592   -6.28856922    c      6.000     0
         -2.33554567    0.00000000    6.28856922    c      6.000     0
         -0.72172330   -2.22123592    6.28856922    c      6.000     0
          6.04098874    2.69216198    1.12231693    c      6.000     0
         -4.42716638   -4.91339791   -1.12231693    c      6.000     0
          4.42716638    4.91339791    1.12231693    c      6.000     0
         -6.04098874   -2.69216198   -1.12231693    c      6.000     0
         -3.75089898   -4.35600959    3.45786260    c      6.000     0
          5.30190283    2.22123592   -3.45786260    c      6.000     0
         -5.30190283   -2.22123592    3.45786260    c      6.000     0
          3.75089898    4.35600959   -3.45786260    c      6.000     0
         -1.88949613   -1.37279930   -6.28856922    c      6.000     0
          1.88949613    1.37279930    6.28856922    c      6.000     0
         -6.46967567   -1.37279930    1.12231693    c      6.000     0
         -3.30484945   -5.72880889    1.12231693    c      6.000     0
          3.30484945    5.72880889   -1.12231693    c      6.000     0
          6.46967567    1.37279930   -1.12231693    c      6.000     0
          5.30190283   -2.22123592   -3.45786260    c      6.000     0
         -0.47414282    5.72880889   -3.45786260    c      6.000     0
         -5.30190283    2.22123592    3.45786260    c      6.000     0
          0.47414282   -5.72880889    3.45786260    c      6.000     0
          6.46967567   -1.37279930   -1.12231693    c      6.000     0
          0.69363001    6.57724551   -1.12231693    c      6.000     0
         -0.69363001   -6.57724551    1.12231693    c      6.000     0
         -6.46967567    1.37279930    1.12231693    c      6.000     0
         -1.88949613    1.37279930   -6.28856922    c      6.000     0
          0.72172330   -2.22123592   -6.28856922    c      6.000     0
          1.88949613   -1.37279930    6.28856922    c      6.000     0
         -0.72172330    2.22123592    6.28856922    c      6.000     0
         -2.98371978   -4.91339791   -3.45786260    c      6.000     0
         -5.59493921   -1.31936268   -3.45786260    c      6.000     0
          5.59493921    1.31936268    3.45786260    c      6.000     0
          2.98371978    4.91339791    3.45786260    c      6.000     0
          3.70544308    2.69216198    4.90130920    c      6.000     0
         -3.70544308   -2.69216198   -4.90130920    c      6.000     0
          0.47414282    5.72880889    3.45786260    c      6.000     0
          5.59493921   -1.31936268    3.45786260    c      6.000     0
         -0.47414282   -5.72880889   -3.45786260    c      6.000     0
         -5.59493921    1.31936268   -3.45786260    c      6.000     0
         -1.41535331   -4.35600959    4.90130920    c      6.000     0
          4.58017953    0.00000000   -4.90130920    c      6.000     0
         -4.58017953    0.00000000    4.90130920    c      6.000     0
          1.41535331    4.35600959   -4.90130920    c      6.000     0
         -3.30484945    5.72880889    1.12231693    c      6.000     0
         -4.42716638    4.91339791   -1.12231693    c      6.000     0
          4.42716638   -4.91339791    1.12231693    c      6.000     0
          3.30484945   -5.72880889   -1.12231693    c      6.000     0
          3.70544308   -2.69216198    4.90130920    c      6.000     0
         -1.41535331    4.35600959    4.90130920    c      6.000     0
         -3.70544308    2.69216198   -4.90130920    c      6.000     0
          1.41535331   -4.35600959   -4.90130920    c      6.000     0
          3.75089898   -4.35600959   -3.45786260    c      6.000     0
         -2.98371978    4.91339791   -3.45786260    c      6.000     0
          2.98371978   -4.91339791    3.45786260    c      6.000     0
         -3.75089898    4.35600959    3.45786260    c      6.000     0
         -6.04098874    2.69216198   -1.12231693    c      6.000     0
          0.69363001   -6.57724551   -1.12231693    c      6.000     0
          6.04098874   -2.69216198    1.12231693    c      6.000     0
         -0.69363001    6.57724551    1.12231693    c      6.000     0
 
       center of nuclear mass  :    0.00000000    0.00000000    0.00000000
       center of nuclear charge:    0.00000000    0.00000000    0.00000000

              +--------------------------------------------------+
              |               basis set information              |
              +--------------------------------------------------+

              we will work with the 1s 3p 5d 7f 9g ... basis set
              ...i.e. with spherical basis functions...

   type   atoms  prim   cont   basis
   ---------------------------------------------------------------------------
    c       60     77     57   def2-QZVP   [7s4p3d2f1g|15s8p3d2f1g]
   ---------------------------------------------------------------------------
   total:   60   4620   3420
   ---------------------------------------------------------------------------

   total number of primitive shells          :   29
   total number of contracted shells         : 1020
   total number of cartesian basis functions : 4320
   total number of SCF-basis functions       : 3420


 integral neglect threshold       :  0.77E-14
 integral storage threshold THIZE :  0.10E-04
 integral storage threshold THIME :         5


 DENSITY CONVERGENCE CHECK SWITCHED ON !
 SCF CONVERGENCE IF RMS(delta[D]) <     0.1000000000E-06


 symmetry group of the molecule :   c1 

 the group has the following generators :
   c1(z)

    1 symmetry operations found

 there are 1 real representations :   a   

 maximum number of shells which are related by symmetry :  1


    mo occupation :
   irrep   mo's   occupied
    a     3420      180
 
 number of basis functions   :                   3420
 number of occupied orbitals :                    180
 

 automatic virtual orbital shift switched on 
      shift if e(lumo)-e(homo) < 0.10000000    


 keyword $2e-ints_shell_statistics missing in file <control>

 ! One task per shell generated
  No pre-computed optimal task distribution found
  ... using automatic task generation

          ------------------------
          nuclear repulsion energy  :   8327.01285389    
          ------------------------


         -----------------
         -S,T+V- integrals
         -----------------

 1e-integrals will be neglected if expon. factor < 0.773602E-15
 
   Difference densities algorithm switched on.
   The maximal number of linear combinations of
   difference densities is                    20 .

 DIIS switched on: error vector is FDS-SDF
 Max. Iterations for DIIS is     :   5
 DIIS matrix (see manual) 
    Scaling factor of diagonals  :  1.200
    threshold for scaling factor :  0.000

 scf convergence criterion : increment of total energy < .1000000D-08
                  and increment of one-electron energy < .1000000D-05

  MOs are in ASCII format !


 reading orbital data $scfmo  from file mos
 orbital characterization : scfconv=9

 DSCF restart information will be dumped onto file mos

 
                                              current damping :  0.300
 ITERATION  ENERGY          1e-ENERGY        2e-ENERGY     RMS[dD(SAO)]   TOL
   1  -2272.5560137079    -19667.660938     9068.0920699    0.000D+00 0.772D-14
          max. resid. norm for Fia-block=  6.368D-04 for orbital     61a         
          max. resid. fock norm         =  9.344D-03 for orbital   3360a         
          Delta Eig. =     2.5192900668 eV 
 
                                              current damping :  0.250
 ITERATION  ENERGY          1e-ENERGY        2e-ENERGY     RMS[dD(SAO)]   TOL
   2  -2272.5560256239    -19667.668247     9068.0993674    0.536D-04 0.490D-14
          Norm of current diis error: 0.74122E-02
          max. resid. norm for Fia-block=  2.040D-04 for orbital     61a         
          max. resid. fock norm         =  2.158D-03 for orbital   3360a         
          Delta Eig. =     0.6039399870 eV 
 
                                              current damping :  0.200
 ITERATION  ENERGY          1e-ENERGY        2e-ENERGY     RMS[dD(SAO)]   TOL
   3  -2272.5560268397    -19667.665980     9068.0970993    0.165D-04 0.389D-14
          Norm of current diis error: 0.17999E-02
          max. resid. norm for Fia-block=  4.777D-05 for orbital     61a         
          max. resid. fock norm         =  4.310D-04 for orbital   3360a         
          Delta Eig. =     0.1262013264 eV 
 
                                              current damping :  0.250
 ITERATION  ENERGY          1e-ENERGY        2e-ENERGY     RMS[dD(SAO)]   TOL
   4  -2272.5560269144    -19667.667752     9068.0988708    0.370D-05 0.343D-14
          Norm of current diis error: 0.38474E-03
          max. resid. norm for Fia-block=  8.923D-06 for orbital     61a         
          max. resid. fock norm         =  7.194D-05 for orbital   3360a         
          Delta Eig. =     0.0200676494 eV 
 
                                              current damping :  0.300
 ITERATION  ENERGY          1e-ENERGY        2e-ENERGY     RMS[dD(SAO)]   TOL
   5  -2272.5560269180    -19667.666307     9068.0974263    0.483D-06 0.312D-14
          Norm of current diis error: 0.14674E-03
          max. resid. norm for Fia-block=  2.565D-06 for orbital    149a         
          max. resid. fock norm         =  1.433D-05 for orbital   3358a         
 mo-orthogonalization: Cholesky decomposition
          Delta Eig. =     0.0039402325 eV 
 
                                              current damping :  0.350
 ITERATION  ENERGY          1e-ENERGY        2e-ENERGY     RMS[dD(SAO)]   TOL
   6  -2272.5560269181    -19667.667080     9068.0981990    0.113D-06 0.300D-14
          Norm of current diis error: 0.40570E-04
          max. resid. norm for Fia-block=  7.778D-07 for orbital    164a         
          max. resid. fock norm         =  3.330D-06 for orbital   3359a         
          Delta Eig. =     0.0008497469 eV 

 DENSITY CONVERGED !

 
                                              current damping :  0.400
 ITERATION  ENERGY          1e-ENERGY        2e-ENERGY     RMS[dD(SAO)]   TOL
   7  -2272.5560269187    -19667.666936     9068.0980547    0.194D-07 0.285D-14
          Norm of current diis error: 0.14602E-04
          max. resid. norm for Fia-block=  3.190D-07 for orbital    174a         
          max. resid. fock norm         =  5.947D-06 for orbital   1060a         
          Delta Eig. =     0.0002157067 eV 

 DENSITY CONVERGED !

 
                                              current damping :  0.450
 ITERATION  ENERGY          1e-ENERGY        2e-ENERGY     RMS[dD(SAO)]   TOL
   8  -2272.5560269181    -19667.666946     9068.0980655    0.844D-08 0.269D-14
          Norm of current diis error: 0.57874E-05
          max. resid. norm for Fia-block=  1.545D-07 for orbital    173a         
          max. resid. fock norm         =  3.098D-06 for orbital    565a         
          Delta Eig. =     0.0000592384 eV 

 ENERGY & DENSITY CONVERGED !

 
                                              current damping :  0.300
 ITERATION  ENERGY          1e-ENERGY        2e-ENERGY     RMS[dD(SAO)]   TOL
   9  -2272.5560269177    -19667.666948     9068.0980675    0.641D-08 0.250D-14
          max. resid. norm for Fia-block=  5.216D-08 for orbital    171a         
          max. resid. fock norm         =  2.281D-06 for orbital    565a         

 convergence criteria satisfied after     9 iterations


                  ------------------------------------------ 
                 |  total energy      =  -2272.55602691774  |
                  ------------------------------------------ 
                 :  kinetic energy    =   2268.86763851475  :
                 :  potential energy  =  -4541.42366543249  :
                 :  virial theorem    =      1.99837698681  :
                 :  wavefunction norm =      1.00000000000  :
                  .......................................... 


 orbitals $scfmo  will be written to file mos

    irrep                176a        177a        178a        179a        180a   
 eigenvalues H         -0.28784    -0.28784    -0.28784    -0.28784    -0.28784
            eV          -7.8326     -7.8326     -7.8326     -7.8326     -7.8326
 occupation              2.0000      2.0000      2.0000      2.0000      2.0000 

    irrep                181a        182a        183a        184a        185a   
 eigenvalues H         -0.03166    -0.03166    -0.03166     0.03298     0.03298
            eV          -0.8616     -0.8616     -0.8616      0.8974      0.8974
 
 
 
 
 ==============================================================================
                           electrostatic moments
 ==============================================================================

 reference point for electrostatic moments:    0.00000   0.00000   0.00000

 
              nuc           elec       ->  total
 ------------------------------------------------------------------------------
                          charge      
 ------------------------------------------------------------------------------
         360.000000    -360.000000       0.000000
 
 ------------------------------------------------------------------------------
                       dipole moment  
 ------------------------------------------------------------------------------
   x       0.000000       0.000000       0.000000
   y       0.000000      -0.000000      -0.000000
   z       0.000000       0.000000       0.000000
 
   | dipole moment | =     0.0000 a.u. =     0.0000 debye 
 
 ------------------------------------------------------------------------------
                     quadrupole moment
 ------------------------------------------------------------------------------
  xx    5400.105171   -5654.937840    -254.832669
  yy    5400.105171   -5654.937840    -254.832669
  zz    5400.105171   -5654.937840    -254.832669
  xy      -0.000000      -0.000000      -0.000000
  xz      -0.000000      -0.000000      -0.000000
  yz      -0.000000      -0.000000      -0.000000
 
     1/3  trace=    -254.832669
     anisotropy=       0.000000
 
 ==============================================================================
 

    dscf profiling
  --------------------------------------------------------------------
             module   cpu total (s)       %  wall total (s)       %

          dscf.total         64965.2  100.00         64244.2  100.00
        dscf.prepare            35.0    0.05            35.1    0.05
      prepare.oneint             1.2    0.00             1.2    0.00
     prepare.moinput             9.8    0.02             9.8    0.02
     moinput_orthmos            22.4    0.03            22.4    0.03
            dscf.scf         64926.5   99.94         64205.5   99.94
             scf.pre             0.0    0.00             0.0    0.00
        scf.makedmat            12.4    0.02            14.3    0.02
          scf.shloop         63740.7   98.12         63683.7   99.13
          shloop_omp         63739.4   98.11         63682.4   99.13
          scf.symcar             2.0    0.00             2.0    0.00
        scf.makefock             3.3    0.01             4.8    0.01
          scf.newerg             0.1    0.00             0.1    0.00
          scf.newcnv           225.5    0.35            30.6    0.05
           scf.fdiag           511.5    0.79            64.2    0.10
         diag_tritrn           147.6    0.23            18.6    0.03
          diag_rdiag           359.8    0.55            45.0    0.07
          scf.modump           354.8    0.55           347.1    0.54
           ortho_all            29.3    0.05            13.8    0.02
            scf.post            46.2    0.07            44.5    0.07
        dscf.postscf             3.6    0.01             3.6    0.01
 


    ------------------------------------------------------------------------
         total  cpu-time : 18 hours  2 minutes and 45 seconds
         total wall-time : 17 hours 50 minutes and 45 seconds
    ------------------------------------------------------------------------

   ****  dscf : all done  ****


    2018-02-15 03:39:12.059 

