 this is node-proc. number 0 running on node c-8-27.local
 the total number of node-proc. spawned is  17

 dscfserver (c-8-27.local) : TURBOMOLE V7.2 ( 21471 ) 7 Nov 2017 at 16:15:16
 Copyright (C) 2017 TURBOMOLE GmbH, Karlsruhe


    2018-02-14 09:48:27.754 

 
    0:00:35 ---- Start global counter...
    3:32:46 ---- ... finished.
 
    3:33:42 ---- Start global counter...
    6:26:56 ---- ... finished.
 
    6:27:53 ---- Start global counter...
    8:48:26 ---- ... finished.
 
    8:49:23 ---- Start global counter...
   10:43:08 ---- ... finished.
 
   10:44:05 ---- Start global counter...
   12:32:51 ---- ... finished.
 
   12:34:05 ---- Start global counter...
   14:01:37 ---- ... finished.
 
   14:02:35 ---- Start global counter...
   15:17:07 ---- ... finished.
 
   15:18:05 ---- Start global counter...
   16:32:29 ---- ... finished.
 
   16:33:27 ---- Start global counter...
   17:49:51 ---- ... finished.
 
   17:50:43 ---- ByeBye Tag received


 ! Total wall-clock time in seconds  :    64242.6
 ! Time (sec) spent in global counter:    63680.7
 ! So-called SERIAL wall-clock time  :      561.9

  *** Regular termination of server ***
 total turnaround time of dscfserver 64244.24 sec
 cpu elapsed by dscfserver process   63731.02 sec 

   ***  dscf server : all done  ***


    2018-02-15 03:39:11.989 

