Using OpenMPI from /sopt/mpi/openmpi-1.8.6/intel_15.0.3/bin/mpiexec
STARTING ridft ON 8 PROCESSORS!
RUNNING PROGRAM /beegfs/modfac/apps/TURBOMOLE/7.0_intel/bin/em64t-unknown-linux-gnu_mpi/ridft_mpi.
PLEASE WAIT UNTIL ridft HAS FINISHED.
Look for the output in slave1.output.
  this is node-proc. number 1 running on node c-9-373.local
  the total number of node-proc. spawned is            7
  parallel platform: MPP, or cluster with fast interconnect

 ridft (c-9-373.local) : TURBOMOLE V7.0( ) 6 Jul 2015 at 19:34:44
 Copyright (C) 2015 TURBOMOLE GmbH, Karlsruhe


    2017-11-07 23:56:16.324 



                                  r i d f t

                        DFT program with RI approximation 
                                for coulomb part 




                                                 
                                 References:     
                                                 
          TURBOMOLE:                             
              R. Ahlrichs, M. Baer, M. Haeser, H. Horn, and
              C. Koelmel
              Electronic structure calculations on workstation
              computers: the program system TURBOMOLE
              Chem. Phys. Lett. 162: 165 (1989)
          Density Functional:                              
              O. Treutler and R. Ahlrichs                      
              Efficient Molecular Numerical Integration Schemes
              J. Chem. Phys. 102: 346 (1995)                   
          Parallel Version:                                
              Performance of parallel TURBOMOLE for Density    
              Functional Calculations                          
              M. v. Arnim and R. Ahlrichs                      
              J. Comp. Chem. 19: 1746 (1998)                   
          RI-J Method:                                     
              Auxiliary Basis Sets to approximate Coulomb      
              Potentials                                       
              Chem. Phys. Lett. 240: 283 (1995)                
              K. Eichkorn, O. Treutler, H. Oehm, M. Haeser     
              and R. Ahlrichs                                  
              Chem. Phys. Lett. 242: 652 (1995)                
                                                           
              Auxiliary Basis Sets for Main Row Atoms and their
              Use to approximate Coulomb Potentials            
              K. Eichkorn, F. Weigend, O. Treutler and         
              R. Ahlrichs                                      
              Theo. Chem. Acc. 97: 119 (1997)                   
                                                           
              Accurate Coulomb-fitting basis sets for H to Rn 
              F. Weigend                                        
              Phys. Chem. Chem. Phys. 8: 1057 (2006)            
                                                           
          Multipole accelerated RI-J (MARI-J):             
              Fast evaluation of the Coulomb potential for     
              electron densities using multipole accelerated   
              resolution of identity approximation             
              M. Sierka, A. Hogekamp and R. Ahlrichs           
              J. Chem. Phys. 118: 9136 (2003)                  
          RI-JK Method:                                     
              A fully direct RI-HF algorithm: Implementation,
              optimised auxiliary basis sets, demonstration of
              accuracy and efficiency                         
              F. Weigend                                      
              Phys. Chem. Chem. Phys. 4: 4285 (2002)           
          Two-component HF and DFT with spin-orbit coupling:  
              Self-consistent treatment of spin-orbit         
              interactions with efficient Hartree-Fock and    
              density functional methods                      
              M. K. Armbruster, F. Weigend, C. van Wüllen and 
              W. Klopper                                      
              Phys. Chem. Chem. Phys. 10: 1748 (2008)         
          Relativistic all-electron 2c calculations           
              An efficient implementation of two-component    
              relativistic exact-decoupling methods for large 
              molecules                                       
              D. Peng, N. Middendorf, F. Weigend, M. Reiher   
              J. Chem. Phys. 138, 184105 (2013)               
                                         


 


              +--------------------------------------------------+
              |      general information about current run       |
              +--------------------------------------------------+

 

 SCF run will be profiled !


 DENSITY CONVERGENCE CHECK SWITCHED ON !
 SCF CONVERGENCE IF RMS(delta[D]) <     0.1000000000E-06

 TPSS meta-GGA functional
 exchange:    LDA + TPSS
 correlation: LDA (PW) + TPSS
 A DFT calculation using the RI-J approximation will be carried out.
 Allocatable memory for RI due to $ricore (MB):       25000


              +--------------------------------------------------+
              | Atomic coordinate, charge and isotop information |
              +--------------------------------------------------+

                    atomic coordinates            atom    charge  isotop
          2.67214728  -16.12873925   -0.75925602    c      6.000     0
          1.30593016  -16.39762846    1.51834749    c      6.000     0
         -1.31019639  -16.39369378    1.51771279    c      6.000     0
         -2.67476084  -16.12094752   -0.76042953    c      6.000     0
         -1.30837672  -16.07940921   -3.05458833    c      6.000     0
          1.30701508  -16.08348240   -3.05409802    c      6.000     0
          5.29139954  -15.59493970   -0.74242714    c      6.000     0
          7.43033913  -14.73005939   -0.73704008    c      6.000     0
         -5.29296625  -15.58136101   -0.74446793    c      6.000     0
         -7.43098344  -14.71426351   -0.73779243    c      6.000     0
         -9.69652615  -13.29645624   -0.72937256    c      6.000     0
        -10.93393434  -12.68813885    1.55473794    c      6.000     0
        -12.82909870  -10.88457433    1.61206466    c      6.000     0
        -13.56404394   -9.60687721   -0.61206758    c      6.000     0
        -12.48997743  -10.38557361   -2.92976160    c      6.000     0
        -10.59732228  -12.18968014   -2.98697242    c      6.000     0
          9.69387361  -13.30877584   -0.72474041    c      6.000     0
         10.92284889  -12.69594135    1.56255539    c      6.000     0
         12.81390532  -10.88799398    1.62341707    c      6.000     0
         13.55406513   -9.61234639   -0.60014373    c      6.000     0
         12.48900578  -10.39633610   -2.92037155    c      6.000     0
         10.59887269  -12.20276556   -2.98104153    c      6.000     0
        -15.05607874   -7.39268630   -0.50055400    c      6.000     0
        -15.92881856   -5.26023940   -0.39600576    c      6.000     0
        -16.45466951   -2.64293666   -0.28509884    c      6.000     0
        -16.77458767   -1.39884896    2.05326687    c      6.000     0
        -16.76504829    1.21483177    2.19051792    c      6.000     0
        -16.43778899    2.69689608   -0.00478934    c      6.000     0
        -16.33519850    1.45269922   -2.36518066    c      6.000     0
        -16.34364924   -1.15825052   -2.50186757    c      6.000     0
         -9.69739828   13.37288615    0.66028140    c      6.000     0
        -10.68041244   12.58633900   -1.69181199    c      6.000     0
        -12.55001309   10.76145865   -1.81388528    c      6.000     0
        -13.52108968    9.64656855    0.40835646    c      6.000     0
        -12.69968087   10.60005497    2.76267366    c      6.000     0
        -10.82624647   12.42196738    2.88531427    c      6.000     0
        -15.01353276    7.43328986    0.27621494    c      6.000     0
        -15.90736486    5.31047831    0.15818470    c      6.000     0
          1.31007953   15.67882057    3.18396858    c      6.000     0
         -1.30376278   15.67899188    3.18327180    c      6.000     0
         -2.66919516   16.12879121    0.93190799    c      6.000     0
         -1.30399492   16.78112110   -1.26489932    c      6.000     0
          1.31274268   16.78099509   -1.26422688    c      6.000     0
         -7.44387325   14.80481212    0.78047799    c      6.000     0
         -5.29633978   15.64268679    0.85051983    c      6.000     0
          2.67673873   16.12841882    0.93327932    c      6.000     0
         15.04434731   -7.39684778   -0.48808300    c      6.000     0
         15.91791929   -5.26463943   -0.38489235    c      6.000     0
         16.44820687   -2.64819090   -0.27276785    c      6.000     0
         16.35323310   -1.16333813   -2.49004727    c      6.000     0
         16.34827902    1.44771140   -2.35360411    c      6.000     0
         16.44058219    2.69197399    0.00709578    c      6.000     0
         16.75374543    1.20920653    2.20415875    c      6.000     0
         16.75917698   -1.40441380    2.06710535    c      6.000     0
         15.91204907    5.30609224    0.16829754    c      6.000     0
         15.01890817    7.42929442    0.28493020    c      6.000     0
         13.52695843    9.64305159    0.41652526    c      6.000     0
         12.55990314   10.76074456   -1.80609525    c      6.000     0
         10.69158278   12.58702608   -1.68507210    c      6.000     0
          9.70414534   13.37050915    0.66620429    c      6.000     0
         10.82826125   12.41594339    2.89203431    c      6.000     0
         12.70146187   10.59368929    2.77052121    c      6.000     0
          7.45113829   14.80341202    0.78450175    c      6.000     0
          5.30381613   15.64189849    0.85335031    c      6.000     0
          2.33093939  -16.46882097    3.29215524    h      1.000     0
         -2.33624415  -16.46168965    3.29105838    h      1.000     0
         -2.33740599  -15.93165612   -4.82276243    h      1.000     0
          2.33709180  -15.93916702   -4.82192292    h      1.000     0
        -10.28539619  -13.55026395    3.29782152    h      1.000     0
        -13.67102568  -10.33633160    3.39957301    h      1.000     0
        -13.08424667   -9.46032737   -4.66108103    h      1.000     0
         -9.70609564  -12.68949935   -4.76551925    h      1.000     0
         10.27233092  -13.55959983    3.30412437    h      1.000     0
         13.64910272  -10.33572109    3.41287065    h      1.000     0
         13.08694959   -9.47331081   -4.65167630    h      1.000     0
          9.71239760  -12.70777496   -4.76049445    h      1.000     0
        -16.90275375   -2.51841171    3.76648086    h      1.000     0
        -16.89564084    2.14897336    4.01175509    h      1.000     0
        -16.12896987    2.57316407   -4.06993635    h      1.000     0
        -16.14424958   -2.09499577   -4.31521838    h      1.000     0
         -9.85366624   13.32838293   -3.41486792    h      1.000     0
        -13.19572089   10.07364854   -3.63442070    h      1.000     0
        -13.47335329    9.80031939    4.48561643    h      1.000     0
        -10.12428912   13.05476129    4.70573538    h      1.000     0
          2.33992891   15.23274541    4.90094171    h      1.000     0
         -2.33436555   15.23295341    4.89975471    h      1.000     0
         -2.33029594   17.16866387   -2.99711721    h      1.000     0
          2.33996508   17.16857470   -2.99589914    h      1.000     0
         16.16220589   -2.09902459   -4.30480185    h      1.000     0
         16.14702687    2.56800284   -4.05906409    h      1.000     0
         16.87777085    2.14314271    4.02597588    h      1.000     0
         16.87815314   -2.52426943    3.78079140    h      1.000     0
         13.20653066   10.07295125   -3.62631047    h      1.000     0
          9.86967430   13.33311592   -3.40869543    h      1.000     0
         10.12324666   13.04644202    4.71207867    h      1.000     0
         13.47150633    9.79133858    4.49387658    h      1.000     0
          7.06839993    6.96662517   -3.78282179    c      0.000     0
          6.81718081    7.58624969    0.75447461    c      0.000     0
         10.17303030   -1.43304544    2.62964269    c      0.000     0
          9.70834447   -2.36461127   -1.83626270    c      0.000     0
         -5.00896409    8.50740321   -4.09532670    c      0.000     0
          1.30817425  -10.04908875   -0.02953448    c      0.000     0
         -4.74928211    9.12599951    0.44257543    c      0.000     0
          1.32279305   -9.97229958    4.55789608    c      0.000     0
          9.40934030   -3.86510789    3.21789820    c      0.000     0
          4.73874471    9.13268269    0.42922251    c      0.000     0
          4.99225691    8.52445581   -4.11025873    c      0.000     0
          8.92860109   -4.78595200   -1.24952035    c      0.000     0
         -6.82423621    7.57620864    0.77429402    c      0.000     0
         -7.08072231    6.94529403   -3.76115623    c      0.000     0
         -1.29863211  -10.05112860   -0.02475216    c      0.000     0
         -1.29707533   -9.97556841    4.56260240    c      0.000     0
        -10.17182887   -1.45470232    2.65839043    c      0.000     0
         -9.70929495   -2.38199560   -1.80843383    c      0.000     0
         -8.92601185   -4.80297303   -1.22445828    c      0.000     0
         -9.40460375   -3.88631024    3.24395407    c      0.000     0
          8.59147749   -5.52500980    1.29553001    c      0.000     0
          3.67605532    9.48575233   -1.99562647    c      0.000     0
         -3.69134146    9.47593848   -1.98485974    c      0.000     0
          2.66883361   -9.82058930    2.26041780    c      0.000     0
          7.90939811    6.32569026   -1.33195061    c      0.000     0
         10.16237149   -0.58235295    0.10017574    c      0.000     0
         -8.58582867   -5.54375848    1.31957459    c      0.000     0
        -10.16377251   -0.60168653    0.12953389    c      0.000     0
         -7.91719765    6.30880092   -1.30754564    c      0.000     0
         -2.65134307   -9.82529570    2.26997467    c      0.000     0
          5.19716430   -8.97798077    2.15723224    c      0.000     0
         -1.16353247   10.30126916   -2.20317014    c      0.000     0
          1.14564358   10.30505673   -2.20670023    c      0.000     0
          7.04101419   -7.62509432    1.84150883    c      0.000     0
         10.13192133    2.02414166   -0.46072061    c      0.000     0
          9.43243498    4.17490263   -0.92302053    c      0.000     0
         -9.43624045    4.15626523   -0.89249933    c      0.000     0
         -5.18189961   -8.98846013    2.17474426    c      0.000     0
        -10.13470555    2.00518631   -0.43002818    c      0.000     0
         -7.03056744   -7.64132393    1.86252041    c      0.000     0
         -2.32233259   -9.90386800    6.33777271    h      0.000     0
         -2.33879897  -10.06371925   -1.79041794    h      0.000     0
         -7.52949657    7.18402772    2.65816162    h      0.000     0
         -7.97472597    6.05924165   -5.38069845    h      0.000     0
          7.52535643    7.19094807    2.63656613    h      0.000     0
          7.96234585    6.08679348   -5.40578345    h      0.000     0
          9.80574470   -1.75544537   -3.79185535    h      0.000     0
         10.62937047   -0.10426406    4.12298185    h      0.000     0
          2.34173743  -10.06155354   -1.79896486    h      0.000     0
          2.35406582   -9.89411812    6.32930690    h      0.000     0
         -4.26511071    8.84349768   -5.97709621    h      0.000     0
         -3.81158480    9.96097977    2.06298225    h      0.000     0
          3.80182284    9.96221555    2.05284690    h      0.000     0
          4.24303803    8.86039803   -5.98992748    h      0.000     0
          8.41516165   -6.10037887   -2.73595956    h      0.000     0
          9.25474763   -4.45089355    5.17750227    h      0.000     0
         -9.24557238   -4.47283137    5.20299795    h      0.000     0
         -9.81004931   -1.77129815   -3.76336716    h      0.000     0
        -10.62720319   -0.12733547    4.15332518    h      0.000     0
         -8.41146537   -6.11458465   -2.71305491    h      0.000     0
 
       center of nuclear mass  :    0.00001562    0.00072594    0.00119925
       center of nuclear charge:    0.00008555    0.02033660   -0.04523826

              +--------------------------------------------------+
              |               basis set information              |
              +--------------------------------------------------+

              we will work with the 1s 3p 5d 7f 9g ... basis set
              ...i.e. with spherical basis functions...

   type   atoms  prim   cont   basis
   ---------------------------------------------------------------------------
    c      104     77     55   cc-pVQZ   [5s4p3d2f1g|21s6p3d2f1g]
    h       52     32     30   cc-pVQZ   [4s3p2d1f|6s3p2d1f]
   ---------------------------------------------------------------------------
   total:  156   9672   7280
   ---------------------------------------------------------------------------

   total number of primitive shells          :   45
   total number of contracted shells         : 2080
   total number of cartesian basis functions : 9100
   total number of SCF-basis functions       : 7280


 integral neglect threshold       :  0.37E-14
 integral storage threshold THIZE :  0.10E-04
 integral storage threshold THIME :         5

 RI-J AUXILIARY BASIS SET information:

              we will work with the 1s 3p 5d 7f 9g ... basis set
              ...i.e. with spherical basis functions...

   type   atoms  prim   cont   basis
   ---------------------------------------------------------------------------
    c      104     70     49   cc-pVQZ   [6s4p3d1f1g|12s5p4d2f1g]
    h       52     16     11   cc-pVQZ   [3s1p1d|5s2p1d]
   ---------------------------------------------------------------------------
   total:  156   8112   5668
   ---------------------------------------------------------------------------

   total number of primitive shells          :   32
   total number of contracted shells         : 1820
   total number of cartesian basis functions : 6968
   total number of SCF-basis functions       : 5668


 symmetry group of the molecule :   c1 

 the group has the following generators :
   c1(z)

    1 symmetry operations found

 there are 1 real representations :   a   

 maximum number of shells which are related by symmetry :  1


    mo occupation :
   irrep   mo's   occupied
    a     7280      208
 
 number of basis functions   :         7280
 number of occupied orbitals :          208
 
  
           ------------------
           density functional
           ------------------
 Dummy atoms with grid-point found.
 DFT quadrature threshold dgrenze tightened by factor 1/10.

 TPSS meta-GGA functional
 exchange:    LDA + TPSS
 correlation: LDA (PW) + TPSS
 Dummy atoms with grid-point found.
 DFT quadrature threshold dgrenze tightened by factor 1/10.

 Dummy atoms with grid-point found.
 DFT quadrature threshold dgrenze tightened by factor 1/10.

 grinp -> nfun, dfgga, dfhybrid 
           5 F F
 iterations will be done with small grid
  
 spherical integration : Lebedev's spherical grid
 spherical gridsize    :           5
    i.e. gridpoints    :         590
 value for diffuse not defined
 radial integration    : Chebyshev 2nd kind (scaling 3)
 radial gridsize       :           8
 integration cells     :         156
 partition function    : becke
 partition sharpness   :           3
  
 found dummy atom(s) with basis: included in dft

 <rddim> : input of entry tasksize
           from data group '$pardft' failed !

               Default values taken

 <rddim> : input of entry memdiv
           from data group '$pardft' failed !

               Default values taken
  RIDFT: memory allocation for DFT gridpoints
  MEMORY is divided by 1 as DEFAULT
 Each node can hold at most  the            1 -th part
 of the gridpoints    

 biggest AO integral is expected to be     3.537514283
  
           ------------------------
               RI-J - INFORMATION
           ------------------------
 
 
 **************************************************
 *      MEMORY ALLOCATION FOR PARALLEL RI-DFT     *
 **************************************************
 
 
MEMORY FOR (MU NU/ ALPHA), SEQUENTIAL RUN              24741 MByte
 
            DIFFERENCE IN MEMORY NEED:       DIAG./SLAVE  
 
      TOTAL DIFFERENCE :                   2412 MByte
 
      difference in xcore:                  260 MByte
      difference in fatmat:                 712 MByte
      getcor calls skipped by slaves:      1441 MByte
 
 
           Integral memory available for diagonal.     24741 MByte
 
           Integral memory available for slave             0 MByte
 
         MEMORY FOR (MU NU/ ALPHA) ON DIAGONALIZER     24741 MByte
 
         MEMORY FOR (MU NU/ ALPHA) ON ONE SLAVE            0 MByte
 
         TOTAL MEMORY FOR (MU NU/ ALPHA),ALL NODES     24741 MByte
 
 Contributions to RI integral batches: 
  neglected integral batches:     1716927
  direct contribution:             332682
  memory contribution:      114631
 Memory core needed for (P|Q) and Cholesky    246 MByte
 Memory core minimum needed except of (P|Q)    18 MByte
 Total minimum memory core needed (sum)       264 MByte
     number of direct tasks:         140
  
 ****************************************
 Memory allocated for RI-J 25004 MByte
 ****************************************
                                            

          ------------------------
          nuclear repulsion energy  :   6194.06409736    
          ------------------------

 
          -----------------
          -S integrals
          -----------------

 1e-integrals will be neglected if expon. factor < 0.367249E-15
 
          -----------------
          -T+V integrals
          -----------------

 1e-integrals will be neglected if expon. factor < 0.367249E-15
 Difference densities >>NOT<< switched on in parallel ridft!

 automatic virtual orbital shift switched on 
      shift if e(lumo)-e(homo) < 0.10000000    


 DIIS switched on: error vector is FDS-SDF
 Max. Iterations for DIIS is     :   4
 DIIS matrix (see manual) 
    Scaling factor of diagonals  :  1.200
    threshold for scaling factor :  0.000

 scf convergence criterion : increment of total energy < .1000000D-08
                  and increment of one-electron energy < .1000000D-05


 <geterg> : there is no data group $energy 

  MOs are in ASCII format !


 reading orbital data $scfmo  from file mos . 

 orbital characterization : expanded
 
 mo provided and orthogonalized by Cholesky decomposition

 DSCF restart information will be dumped onto file mos


 Starting SCF iterations


 ITERATION  ENERGY          1e-ENERGY        2e-ENERGY     RMS[dD(SAO)]   TOL
   1  -2451.1034029513    -15538.198203     6893.0307024    0.000D+00 0.366D-14
                            Exc = -349.912435865     Coul =  7242.94313828    
                              N = 416.00109229    
                            current damping = 0.700
 
          max. resid. norm for Fia-block=  3.053D-01 for orbital      9a         
          max. resid. fock norm         =  1.488D+01 for orbital   6707a         

 ITERATION  ENERGY          1e-ENERGY        2e-ENERGY     RMS[dD(SAO)]   TOL
   2  -2457.3338146712    -15608.222630     6956.8247180    0.161D-01 0.366D-14
                            Exc = -356.313326674     Coul =  7313.13804467    
                              N = 416.00090828    
                            current damping = 0.650
 
          Norm of current diis error:  9.1591    
          max. resid. norm for Fia-block=  1.346D-01 for orbital     61a         
          max. resid. fock norm         =  1.727D-01 for orbital   7046a         

 ITERATION  ENERGY          1e-ENERGY        2e-ENERGY     RMS[dD(SAO)]   TOL
   3  -2458.6399446578    -15625.480934     6972.7768921    0.532D-02 0.366D-14
                            Exc = -358.200044062     Coul =  7330.97693614    
                              N = 416.00082402    
                            current damping = 0.550
 
          Norm of current diis error:  4.3387    
          max. resid. norm for Fia-block=  5.771D-02 for orbital     72a         
          max. resid. fock norm         =  6.443D-02 for orbital     72a         

 ITERATION  ENERGY          1e-ENERGY        2e-ENERGY     RMS[dD(SAO)]   TOL
   4  -2459.0141903949    -15638.098972     6985.0206846    0.122D-02 0.366D-14
                            Exc = -359.341155047     Coul =  7344.36183966    
                              N = 416.00078297    
                            current damping = 0.450
 
          Norm of current diis error:  1.6400    
          max. resid. norm for Fia-block=  2.228D-02 for orbital     72a         
          max. resid. fock norm         =  2.829D-02 for orbital     96a         

 ITERATION  ENERGY          1e-ENERGY        2e-ENERGY     RMS[dD(SAO)]   TOL
   5  -2459.0765273672    -15640.890787     6987.7501619    0.469D-03 0.366D-14
                            Exc = -359.759764725     Coul =  7347.50992662    
                              N = 416.00076475    
                            current damping = 0.350
 
          Norm of current diis error: 0.69430    
          max. resid. norm for Fia-block=  9.096D-03 for orbital    136a         
          max. resid. fock norm         =  1.334D-02 for orbital     26a         
          irrep a   : virtual orbitals shifted by    0.00350
          mo-orthogonalization: Cholesky decomposition

 ITERATION  ENERGY          1e-ENERGY        2e-ENERGY     RMS[dD(SAO)]   TOL
   6  -2459.0864397105    -15643.764578     6990.6140405    0.288D-03 0.366D-14
                            Exc = -359.968010633     Coul =  7350.58205114    
                              N = 416.00075943    
                            current damping = 0.250
 
          Norm of current diis error: 0.32379    
          max. resid. norm for Fia-block=  3.360D-03 for orbital    127a         
          max. resid. fock norm         =  6.166D-03 for orbital   7189a         
          irrep a   : virtual orbitals shifted by    0.02071

 ITERATION  ENERGY          1e-ENERGY        2e-ENERGY     RMS[dD(SAO)]   TOL
   7  -2459.0888946084    -15643.470151     6990.3171595    0.893D-04 0.366D-14
                            Exc = -359.981591162     Coul =  7350.29875061    
                              N = 416.00075837    
                            current damping = 0.300
 
          Norm of current diis error: 0.67110E-01
          max. resid. norm for Fia-block=  8.139D-04 for orbital    136a         
          max. resid. fock norm         =  1.555D-03 for orbital   7216a         
          irrep a   : virtual orbitals shifted by    0.01992

 ITERATION  ENERGY          1e-ENERGY        2e-ENERGY     RMS[dD(SAO)]   TOL
   8  -2459.0889596901    -15643.493798     6990.3407412    0.283D-04 0.366D-14
                            Exc = -359.990201197     Coul =  7350.33094238    
                              N = 416.00075812    
                            current damping = 0.350
 
          Norm of current diis error: 0.45694E-01
          max. resid. norm for Fia-block=  4.332D-04 for orbital    206a         
          max. resid. fock norm         =  1.154D-03 for orbital     64a         
          irrep a   : virtual orbitals shifted by    0.01736

 ITERATION  ENERGY          1e-ENERGY        2e-ENERGY     RMS[dD(SAO)]   TOL
   9  -2459.0889979748    -15643.567953     6990.4148573    0.507D-05 0.366D-14
                            Exc = -359.993307435     Coul =  7350.40816477    
                              N = 416.00075797    
                            current damping = 0.200
 
          Norm of current diis error: 0.18003E-01
          max. resid. norm for Fia-block=  2.962D-04 for orbital    189a         
          max. resid. fock norm         =  8.803D-04 for orbital     64a         
          irrep a   : virtual orbitals shifted by    0.02667

 ITERATION  ENERGY          1e-ENERGY        2e-ENERGY     RMS[dD(SAO)]   TOL
  10  -2459.0889964554    -15643.615430     6990.4623361    0.156D-05 0.366D-14
                            Exc = -359.995095053     Coul =  7350.45743113    
                              N = 416.00075807    
                            current damping = 0.250
 
          Norm of current diis error: 0.20107E-01
          max. resid. norm for Fia-block=  1.049D-04 for orbital    189a         
          max. resid. fock norm         =  3.336D-04 for orbital     64a         
          irrep a   : virtual orbitals shifted by    0.02363
          mo-orthogonalization: Cholesky decomposition

 ITERATION  ENERGY          1e-ENERGY        2e-ENERGY     RMS[dD(SAO)]   TOL
  11  -2459.0890042375    -15643.586527     6990.4334257    0.117D-05 0.366D-14
                            Exc = -359.993950056     Coul =  7350.42737575    
                              N = 416.00075807    
                            current damping = 0.300
 
          Norm of current diis error: 0.67851E-02
          max. resid. norm for Fia-block=  5.143D-05 for orbital    189a         
          max. resid. fock norm         =  1.392D-04 for orbital     64a         
          irrep a   : virtual orbitals shifted by    0.02059

 ITERATION  ENERGY          1e-ENERGY        2e-ENERGY     RMS[dD(SAO)]   TOL
  12  -2459.0890052368    -15643.581090     6990.4279870    0.619D-06 0.366D-14
                            Exc = -359.993785698     Coul =  7350.42177270    
                              N = 416.00075805    
                            current damping = 0.150
 
          Norm of current diis error: 0.13235E-02
          max. resid. norm for Fia-block=  1.744D-05 for orbital    208a         
          max. resid. fock norm         =  4.679D-05 for orbital   7226a         
          irrep a   : virtual orbitals shifted by    0.02975

 ITERATION  ENERGY          1e-ENERGY        2e-ENERGY     RMS[dD(SAO)]   TOL
  13  -2459.0890052241    -15643.580028     6990.4269251    0.158D-06 0.366D-14
                            Exc = -359.993723342     Coul =  7350.42064841    
                              N = 416.00075804    
                            current damping = 0.200
 
          Norm of current diis error: 0.15219E-02
          max. resid. norm for Fia-block=  6.848D-06 for orbital    196a         
          max. resid. fock norm         =  2.110D-05 for orbital   7226a         
          irrep a   : virtual orbitals shifted by    0.02669

 DENSITY CONVERGED !


 ITERATION  ENERGY          1e-ENERGY        2e-ENERGY     RMS[dD(SAO)]   TOL
  14  -2459.0890052718    -15643.579678     6990.4265754    0.614D-07 0.366D-14
                            Exc = -359.993721522     Coul =  7350.42029693    
                              N = 416.00075805    
                            current damping = 0.050
 
          Norm of current diis error: 0.49859E-03
          max. resid. norm for Fia-block=  3.738D-06 for orbital    207a         
          max. resid. fock norm         =  7.890D-06 for orbital   7226a         
          irrep a   : virtual orbitals shifted by    0.03586

 DENSITY CONVERGED !


 ITERATION  ENERGY          1e-ENERGY        2e-ENERGY     RMS[dD(SAO)]   TOL
  15  -2459.0890052766    -15643.580158     6990.4270552    0.412D-07 0.366D-14
                            Exc = -359.993743120     Coul =  7350.42079828    
                              N = 416.00075805    
                            current damping = 0.100
 
          Norm of current diis error: 0.24400E-03
          max. resid. norm for Fia-block=  3.570D-06 for orbital    191a         
          max. resid. fock norm         =  1.147D-05 for orbital     60a         
          irrep a   : virtual orbitals shifted by    0.03280
          mo-orthogonalization: Cholesky decomposition

 DENSITY CONVERGED !


 ITERATION  ENERGY          1e-ENERGY        2e-ENERGY     RMS[dD(SAO)]   TOL
  16  -2459.0890052771    -15643.580049     6990.4269462    0.160D-07 0.366D-14
                            Exc = -359.993738127     Coul =  7350.42068434    
                              N = 416.00075805    
                            current damping = 0.150
 
          Norm of current diis error: 0.18212E-03
          max. resid. norm for Fia-block=  1.762D-06 for orbital    191a         
          max. resid. fock norm         =  6.155D-06 for orbital     60a         
          irrep a   : virtual orbitals shifted by    0.02975

 DENSITY CONVERGED !


 ITERATION  ENERGY          1e-ENERGY        2e-ENERGY     RMS[dD(SAO)]   TOL
  17  -2459.0890052778    -15643.579999     6990.4268963    0.753D-08 0.366D-14
                            Exc = -359.993736800     Coul =  7350.42063312    
                              N = 416.00075805    
                            current damping = 0.050
 
          Norm of current diis error: 0.56598E-04
          max. resid. norm for Fia-block=  6.390D-07 for orbital    206a         
          max. resid. fock norm         =  1.710D-06 for orbital     64a         
          irrep a   : virtual orbitals shifted by    0.03586

 DENSITY CONVERGED !


 ITERATION  ENERGY          1e-ENERGY        2e-ENERGY     RMS[dD(SAO)]   TOL
  18  -2459.0890052777    -15643.580085     6990.4269822    0.607D-08 0.366D-14
                            Exc = -359.993740455     Coul =  7350.42072265    
                              N = 416.00075805    
                            current damping = 0.100
 
          Norm of current diis error: 0.42653E-04
          max. resid. norm for Fia-block=  2.640D-07 for orbital    189a         
          max. resid. fock norm         =  1.027D-06 for orbital     64a         
          irrep a   : virtual orbitals shifted by    0.03280

 ENERGY & DENSITY CONVERGED !


 ITERATION  ENERGY          1e-ENERGY        2e-ENERGY     RMS[dD(SAO)]   TOL
  19  -2459.0877567680    -15643.580055     6990.4282005    0.175D-08 0.366D-14
                            Exc = -359.992490431     Coul =  7350.42069092    
                              N = 415.99992712    
                            current damping = 0.150
 
          Norm of current diis error: 0.17646E-04
          max. resid. norm for Fia-block=  1.185D-07 for orbital    194a         
          max. resid. fock norm         =  3.413D-07 for orbital   7226a         

 End of SCF iterations

   convergence criteria satisfied after   19 iterations


                  ------------------------------------------ 
                 |  total energy      =  -2459.08775676798  |
                  ------------------------------------------ 
                 :  kinetic energy    =   2447.74178505781  :
                 :  potential energy  =  -4906.82954182579  :
                 :  virial theorem    =      1.99538610540  :
                 :  wavefunction norm =      1.00000000000  :
                  .......................................... 


 <geterg> : there is no data group $energy 


 <skperg> : $end is missing 


 orbitals $scfmo  will be written to file mos

    irrep                204a        205a        206a        207a        208a   
 eigenvalues H         -0.21560    -0.21552    -0.19116    -0.19091    -0.17780
            eV          -5.8669     -5.8645     -5.2018     -5.1949     -4.8382
 occupation              2.0000      2.0000      2.0000      2.0000      2.0000 

    irrep                209a        210a        211a        212a        213a   
 eigenvalues H         -0.11671    -0.10252    -0.10217    -0.07473    -0.07468
            eV          -3.1759     -2.7897     -2.7802     -2.0336     -2.0320
 
 
 ! grave: sending quit signal to master process
 
 
 
 
 ==============================================================================
                           electrostatic moments
 ==============================================================================

 reference point for electrostatic moments:    0.00000   0.00000   0.00000

 
              nuc           elec       ->  total
 ------------------------------------------------------------------------------
                          charge      
 ------------------------------------------------------------------------------
         416.000000    -416.000000      -0.000000
 
 ------------------------------------------------------------------------------
                       dipole moment  
 ------------------------------------------------------------------------------
   x       0.035589      -0.036526      -0.000937
   y       8.460026      -8.447537       0.012489
   z     -18.819118      18.828434       0.009316
 
   | dipole moment | =     0.0156 a.u. =     0.0397 debye 
 
 ------------------------------------------------------------------------------
                     quadrupole moment
 ------------------------------------------------------------------------------
  xx   57747.430483  -58036.128903    -288.698420
  yy   55965.823914  -56253.972326    -288.148412
  zz    1671.227879   -1909.448782    -238.220903
  xy       0.236717      -0.246313      -0.009596
  xz      18.843692     -18.899806      -0.056114
  yz    2804.209840   -2808.382220      -4.172381
 
     1/3  trace=    -271.689245
     anisotropy=      50.722334
 
 ==============================================================================
 

    ridft profiling
  --------------------------------------------------------------------
             module   cpu total (s)       %  wall total (s)       %

               RIDFT         22166.5  100.00         23334.7  100.00
         Ridft_b_scf          6016.6   27.14          6474.2   27.74
        b_scf_prelim             0.0    0.00             0.0    0.00
        b_scf_molinp             0.0    0.00             0.0    0.00
         b_scf_init0             0.0    0.00             0.0    0.00
        b_scf_auxbas             0.0    0.00             0.0    0.00
      b_scf_symmetry             0.0    0.00             0.0    0.00
         b_scf_cosmo             0.0    0.00             0.0    0.00
        b_scf_params          5049.0   22.78          5223.5   22.39
          b_scf_ri-j           632.8    2.85           899.4    3.85
    b_scf_ri-j_auxpq           632.7    2.85           899.3    3.85
     ri-j_auxpq_chol            11.7    0.05            11.7    0.05
         b_scf_1elec            30.0    0.14            36.3    0.16
       b_scf_moinput           304.8    1.37           314.8    1.35
     moinput_orthmos           300.9    1.36           306.1    1.31
    b_scf_dft-dstmax             0.0    0.00             0.0    0.00
           Ridft_scf         16144.9   72.83         16855.3   72.23
          Scf_b_loop             0.0    0.00             0.0    0.00
                noga             0.0    0.00             0.0    0.00
            Scf_loop         16127.0   72.75         16832.2   72.13
     scf_loop_mkdmat            71.6    0.32            73.0    0.31
       scf_loop_ri-j          2611.6   11.78          2617.0   11.22
      parlp1.bc.dens            10.3    0.05            10.3    0.04
        parlp1.gs.gp             1.2    0.01             1.2    0.01
        parlp2.bc.gq             0.0    0.00             0.0    0.00
        scf_loop_dft          9753.8   44.00         10163.6   43.56
      pardft.bc.dens             0.0    0.00             0.0    0.00
        dft_grid_con            41.0    0.18            41.0    0.18
          dft_xcmrhf          9239.0   41.68          9648.9   41.35
          dft_getval           253.0    1.14           333.4    1.43
          funct2 dst             6.0    0.03             5.8    0.03
      funct2 f2loop1            78.5    0.35           114.9    0.49
      funct2 f2loop2           109.1    0.49           147.0    0.63
          funct2 s+c            54.1    0.24            60.2    0.26
        funct2 cmf_2            49.6    0.22            55.6    0.24
          dft_mkdens          4478.1   20.20          4678.1   20.05
        dft_mgga-fun             3.3    0.02             3.2    0.01
          dft_mkfock          4489.9   20.26          4613.1   19.77
     pardft.red.fock          1012.1    4.57          1011.9    4.34
     scf_loop_energy             0.5    0.00             0.5    0.00
     scf_loop_mkfock             1.1    0.00             1.1    0.00
       scf_loop_diis          1468.2    6.62          1476.1    6.33
       scf_loop_diag          1555.9    7.02          1738.6    7.45
         diag_tritrn           405.6    1.83           424.8    1.82
          diag_rdiag          1147.6    5.18          1311.2    5.62
     scf_loop_modump           308.1    1.39           403.5    1.73
      scf_loop_ortho           341.0    1.54           343.6    1.47
          Scf_a_loop            17.9    0.08            23.1    0.10
         Ridft_a_scf             5.1    0.02             5.3    0.02
         a_scf_fanal             4.0    0.02             4.1    0.02
 


    ------------------------------------------------------------------------
         total  cpu-time :  6 hours  9 minutes and 49 seconds
         total wall-time :  6 hours 29 minutes and 17 seconds
    ------------------------------------------------------------------------


   ****  ridft : all done  ****


    2017-11-08 06:25:33.080 

