Using Slurm to start processes with PMI2
STARTING ridft ON 8 PROCESSORS!
RUNNING PROGRAM /beegfs/modfac/apps/TURBOMOLE/7.0_intel_GA/bin/em64t-unknown-linux-gnu_mpi/ridft_mpi.
PLEASE WAIT UNTIL ridft HAS FINISHED.
Look for the output in slave1.output.
  this is node-proc. number 1 running on node c-15-41.local
  the total number of node-proc. spawned is            8
  parallel platform: MPP, or cluster with fast interconnect

 ridft (c-15-41.local) : TURBOMOLE V7.0.2( ) 15 Jan 2016 at 17:47:42
 Copyright (C) 2016 TURBOMOLE GmbH, Karlsruhe


    2017-11-13 12:08:32.080 



                                  r i d f t

                        DFT program with RI approximation 
                                for coulomb part 




                                                 
                                 References:     
                                                 
          TURBOMOLE:                             
              R. Ahlrichs, M. Baer, M. Haeser, H. Horn, and
              C. Koelmel
              Electronic structure calculations on workstation
              computers: the program system TURBOMOLE
              Chem. Phys. Lett. 162: 165 (1989)
          Density Functional:                              
              O. Treutler and R. Ahlrichs                      
              Efficient Molecular Numerical Integration Schemes
              J. Chem. Phys. 102: 346 (1995)                   
          Parallel Version:                                
              Performance of parallel TURBOMOLE for Density    
              Functional Calculations                          
              M. v. Arnim and R. Ahlrichs                      
              J. Comp. Chem. 19: 1746 (1998)                   
          RI-J Method:                                     
              Auxiliary Basis Sets to approximate Coulomb      
              Potentials                                       
              Chem. Phys. Lett. 240: 283 (1995)                
              K. Eichkorn, O. Treutler, H. Oehm, M. Haeser     
              and R. Ahlrichs                                  
              Chem. Phys. Lett. 242: 652 (1995)                
                                                           
              Auxiliary Basis Sets for Main Row Atoms and their
              Use to approximate Coulomb Potentials            
              K. Eichkorn, F. Weigend, O. Treutler and         
              R. Ahlrichs                                      
              Theo. Chem. Acc. 97: 119 (1997)                   
                                                           
              Accurate Coulomb-fitting basis sets for H to Rn 
              F. Weigend                                        
              Phys. Chem. Chem. Phys. 8: 1057 (2006)            
                                                           
          Multipole accelerated RI-J (MARI-J):             
              Fast evaluation of the Coulomb potential for     
              electron densities using multipole accelerated   
              resolution of identity approximation             
              M. Sierka, A. Hogekamp and R. Ahlrichs           
              J. Chem. Phys. 118: 9136 (2003)                  
          RI-JK Method:                                     
              A fully direct RI-HF algorithm: Implementation,
              optimised auxiliary basis sets, demonstration of
              accuracy and efficiency                         
              F. Weigend                                      
              Phys. Chem. Chem. Phys. 4: 4285 (2002)           
          Two-component HF and DFT with spin-orbit coupling:  
              Self-consistent treatment of spin-orbit         
              interactions with efficient Hartree-Fock and    
              density functional methods                      
              M. K. Armbruster, F. Weigend, C. van Wüllen and 
              W. Klopper                                      
              Phys. Chem. Chem. Phys. 10: 1748 (2008)         
          Relativistic all-electron 2c calculations           
              An efficient implementation of two-component    
              relativistic exact-decoupling methods for large 
              molecules                                       
              D. Peng, N. Middendorf, F. Weigend, M. Reiher   
              J. Chem. Phys. 138, 184105 (2013)               
                                         


 


              +--------------------------------------------------+
              |      general information about current run       |
              +--------------------------------------------------+

 

 SCF run will be profiled !


 DENSITY CONVERGENCE CHECK SWITCHED ON !
 SCF CONVERGENCE IF RMS(delta[D]) <     0.1000000000E-06

 TPSS meta-GGA functional
 exchange:    LDA + TPSS
 correlation: LDA (PW) + TPSS
 A DFT calculation using the RI-J approximation will be carried out.
 Allocatable memory for RI due to $ricore (MB):        5000


              +--------------------------------------------------+
              | Atomic coordinate, charge and isotop information |
              +--------------------------------------------------+

                    atomic coordinates            atom    charge  isotop
          6.05659189   -0.94048895   -4.35480813    c      6.000     0
          7.49962662   -2.53265446   -5.84947775    c      6.000     0
          6.18012529   -4.87531841   -6.04637788    c      6.000     0
          3.96656005   -4.66464663   -4.65960429    c      6.000     0
          6.42436698    1.79798203   -3.59417940    c      6.000     0
          9.07738196    2.66591966   -4.49760076    c      6.000     0
          4.43700767    3.41137206   -4.89113411    c      6.000     0
          4.50257883    4.42215176   -7.30482428    c      6.000     0
          1.88514808   -6.56016261   -4.13169381    c      6.000     0
          1.73699803   -7.08664932   -1.25279560    c      6.000     0
          2.51832904   -9.05559727   -5.48368597    c      6.000     0
         -0.64075295   -5.59626660   -5.09386150    c      6.000     0
         -1.99428580   -6.23438912   -7.24654003    c      6.000     0
          3.92163817   -2.26122403   -3.65805003    n      7.000     0
          2.11854219    4.01750368   -3.85982585    n      7.000     0
         -2.06216339   -3.83183561   -3.80426755    n      7.000     0
         -3.91783079    4.84255687   -4.57716225    c      6.000     0
         -6.49117714    5.35603384   -4.40570077    c      6.000     0
         -7.79988974    3.00395119   -4.33751600    c      6.000     0
         -6.01029284    1.08346078   -4.43579244    c      6.000     0
         -1.74797667    6.70337984   -4.89577494    c      6.000     0
         -1.42553625    8.27662569   -2.43621438    c      6.000     0
         -2.47096983    8.55352329   -7.03988900    c      6.000     0
          0.72535695    5.44738358   -5.55838143    c      6.000     0
          2.17770611    5.69745616   -7.72232265    c      6.000     0
         -6.37705258   -1.73026089   -3.95463425    c      6.000     0
         -8.94169076   -2.54048547   -5.12766108    c      6.000     0
         -4.30254376   -3.36355888   -5.05971943    c      6.000     0
         -4.29310159   -4.83827197   -7.22400518    c      6.000     0
         -3.67566487    2.24167950   -4.56805342    n      7.000     0
          6.38858894    2.07426602   -0.73596175    c      6.000     0
          6.36277500    4.21756192    0.82399973    c      6.000     0
          6.83851488    0.02927768    0.75978099    n      7.000     0
          6.84100511    3.39257236    3.33556150    c      6.000     0
          7.12616251    0.75961049    3.25103206    c      6.000     0
         -6.55501806   -2.12478905   -1.09642806    c      6.000     0
         -6.51959921   -4.28526775    0.41638225    c      6.000     0
         -7.02010736   -0.08550083    0.43477021    n      7.000     0
         -7.07490658   -3.51386973    2.94265858    c      6.000     0
         -7.39764716   -0.89298541    2.90946676    c      6.000     0
          7.64410523   -1.05781758    5.21820343    c      6.000     0
         -7.76535338    0.91165175    4.91149480    c      6.000     0
          8.05623684   -0.57723657    7.45297736    o      8.000     0
         -8.35156648    0.48033527    7.10358177    o      8.000     0
          7.64428665   -3.46725220    4.27852444    o      8.000     0
         -7.33950547    3.36065213    4.05036823    o      8.000     0
         -7.80979450    5.37854477    5.88685588    c      6.000     0
          8.16515392   -5.48501931    6.07708097    c      6.000     0
         -6.87136406    7.81209282    4.70474429    c      6.000     0
          7.43599124   -7.95100247    4.81528474    c      6.000     0
         -7.15695316   -5.21084738    5.20910747    c      6.000     0
          6.96452503    5.04158557    5.63832198    c      6.000     0
          4.43782184    5.14437392    7.07591983    c      6.000     0
         -4.55158175   -5.51188746    6.46645904    c      6.000     0
         -6.01187267   -6.95325655   -0.39750406    c      6.000     0
          5.95720012    6.90800520    0.02134905    c      6.000     0
          1.46621179   -2.75248977    7.65079812    c      6.000     0
          1.28737432   -2.13045025    5.10073749    c      6.000     0
          0.29962023   -1.23487408    9.46856742    c      6.000     0
          0.00052923    0.05207755    4.34399601    c      6.000     0
         -1.02348263    0.92491072    8.72447582    c      6.000     0
         -1.13924409    1.57794195    6.17720516    c      6.000     0
         -0.10402960    0.74837421    1.59232937    c      6.000     0
         -0.65014532    3.02318744    1.01454498    o      8.000     0
          0.36854886   -0.95827276   -0.01398108    o      8.000     0
          9.28565613   -2.06932957   -6.72633419    h      1.000     0
          6.79321048   -6.52714517   -7.08117689    h      1.000     0
          9.37092176    4.64626899   -3.99670878    h      1.000     0
          9.25944118    2.46053765   -6.54473838    h      1.000     0
         10.52759429    1.51461458   -3.58182930    h      1.000     0
          6.05144490    4.26291571   -8.62750194    h      1.000     0
          0.27982670   -8.50438954   -0.86582365    h      1.000     0
          1.29265351   -5.37395795   -0.18598621    h      1.000     0
          3.56089979   -7.80730168   -0.59452269    h      1.000     0
          2.69181223   -8.78824248   -7.52610908    h      1.000     0
          1.03007454  -10.44399733   -5.12328603    h      1.000     0
          4.30965795   -9.80198284   -4.76987810    h      1.000     0
         -1.41868545   -7.59066178   -8.66231010    h      1.000     0
          2.57356174   -1.58252655   -2.43153520    h      1.000     0
          1.50846242    3.56438868   -2.07498195    h      1.000     0
         -1.52444497   -2.96927802   -2.15453012    h      1.000     0
         -7.34447551    7.21300451   -4.45711214    h      1.000     0
         -9.82595381    2.75349830   -4.23634640    h      1.000     0
         -0.03208176    9.77368137   -2.73859505    h      1.000     0
         -0.74610593    7.10366656   -0.87359857    h      1.000     0
         -3.22303730    9.16990622   -1.92035885    h      1.000     0
         -2.76745327    7.54429127   -8.81873341    h      1.000     0
         -0.97296619    9.95460907   -7.29972141    h      1.000     0
         -4.21638726    9.54412258   -6.55212251    h      1.000     0
          1.64796304    6.73091949   -9.40282530    h      1.000     0
         -8.92269148   -2.23985922   -7.17117518    h      1.000     0
        -10.47974873   -1.43506770   -4.30717737    h      1.000     0
         -9.28166111   -4.53743262   -4.73455741    h      1.000     0
         -5.79670197   -4.95706858   -8.60287613    h      1.000     0
         -1.99662600    1.31515907   -4.61185182    h      1.000     0
          6.96297247   -1.77329282    0.13383818    h      1.000     0
         -7.85907237    1.47963155   -0.30429348    h      1.000     0
         -6.80560794    4.91755805    7.62909624    h      1.000     0
         -9.83801452    5.43325233    6.26877102    h      1.000     0
          7.07441050   -5.13118966    7.79448202    h      1.000     0
         10.17804572   -5.42364362    6.55270679    h      1.000     0
         -4.81349990    7.78559081    4.43759822    h      1.000     0
         -7.28545848    9.39743953    5.96327192    h      1.000     0
         -7.81805652    8.18461347    2.90008922    h      1.000     0
          5.41727994   -7.97830075    4.36471608    h      1.000     0
          7.84188395   -9.52262344    6.09853259    h      1.000     0
          8.50913504   -8.23602480    3.07031263    h      1.000     0
         -7.85924735   -7.06987279    4.62290866    h      1.000     0
         -8.49428123   -4.44789121    6.58775211    h      1.000     0
          7.50517407    6.95760353    5.06300307    h      1.000     0
          8.43286051    4.33632749    6.91350534    h      1.000     0
          2.91723795    5.81407688    5.84346925    h      1.000     0
          4.57682062    6.41539211    8.70577975    h      1.000     0
          3.91792017    3.26151990    7.74681143    h      1.000     0
         -3.16477089   -6.27087100    5.13349873    h      1.000     0
         -4.67172345   -6.79492574    8.08647037    h      1.000     0
         -3.85279099   -3.68449622    7.12510105    h      1.000     0
         -5.91542246   -7.10980179   -2.45297909    h      1.000     0
         -7.50152793   -8.21941343    0.28654148    h      1.000     0
         -4.21575455   -7.64081271    0.36993221    h      1.000     0
          6.09687785    7.11359742   -2.02839699    h      1.000     0
          7.35662936    8.16073709    0.89359529    h      1.000     0
          4.08350239    7.59033417    0.58730028    h      1.000     0
          2.49262025   -4.43260770    8.22903698    h      1.000     0
          2.16565425   -3.29952619    3.66593136    h      1.000     0
          0.41879929   -1.73420128   11.45650829    h      1.000     0
         -1.93838164    2.10982054   10.12927379    h      1.000     0
         -2.09070617    3.29920439    5.59812713    h      1.000     0
         -4.47717701    4.53608054    0.66086160    na    11.000     0
 
       center of nuclear mass  :   -0.09748777    0.10733744   -0.05051306
       center of nuclear charge:   -0.08319036    0.09224148   -0.03653370

              +--------------------------------------------------+
              |               basis set information              |
              +--------------------------------------------------+

              we will work with the 1s 3p 5d 7f 9g ... basis set
              ...i.e. with spherical basis functions...

   type   atoms  prim   cont   basis
   ---------------------------------------------------------------------------
    c       53     77     55   cc-pVQZ   [5s4p3d2f1g|21s6p3d2f1g]
    n        6     77     55   cc-pVQZ   [5s4p3d2f1g|21s6p3d2f1g]
    o        6     77     55   cc-pVQZ   [5s4p3d2f1g|21s6p3d2f1g]
    h       63     32     30   cc-pVQZ   [4s3p2d1f|6s3p2d1f]
    na       1    152     59   cc-pVQZ   [6s5p3d2f1g|51s21p3d2f1g]
   ---------------------------------------------------------------------------
   total:  129   7173   5524
   ---------------------------------------------------------------------------

   total number of primitive shells          :  189
   total number of contracted shells         : 1622
   total number of cartesian basis functions : 6829
   total number of SCF-basis functions       : 5524


 integral neglect threshold       :  0.49E-14
 integral storage threshold THIZE :  0.10E-04
 integral storage threshold THIME :         5

 RI-J AUXILIARY BASIS SET information:

              we will work with the 1s 3p 5d 7f 9g ... basis set
              ...i.e. with spherical basis functions...

   type   atoms  prim   cont   basis
   ---------------------------------------------------------------------------
    c       53     70     49   cc-pVQZ   [6s4p3d1f1g|12s5p4d2f1g]
    n        6     70     49   cc-pVQZ   [6s4p3d1f1g|12s5p4d2f1g]
    o        6     70     49   cc-pVQZ   [6s4p3d1f1g|12s5p4d2f1g]
    h       63     16     11   cc-pVQZ   [3s1p1d|5s2p1d]
    na       1     77     56   universal   [8s4p4d1f1g|14s5p5d2f1g]
   ---------------------------------------------------------------------------
   total:  129   5635   3934
   ---------------------------------------------------------------------------

   total number of primitive shells          :  107
   total number of contracted shells         : 1308
   total number of cartesian basis functions : 4790
   total number of SCF-basis functions       : 3934


 symmetry group of the molecule :   c1 

 the group has the following generators :
   c1(z)

    1 symmetry operations found

 there are 1 real representations :   a   

 maximum number of shells which are related by symmetry :  1


    mo occupation :
   irrep   mo's   occupied
    a     5524      241
 
 number of basis functions   :         5524
 number of occupied orbitals :          241
 
  
           ------------------
           density functional
           ------------------
 TPSS meta-GGA functional
 exchange:    LDA + TPSS
 correlation: LDA (PW) + TPSS
 grinp -> nfun, dfgga, dfhybrid 
           5 F F
 iterations will be done with small grid
  
 spherical integration : Lebedev's spherical grid
 spherical gridsize    :           5
    i.e. gridpoints    :         590
 value for diffuse not defined
 radial integration    : Chebyshev 2nd kind (scaling 3)
 radial gridsize       :           8
 integration cells     :         129
 partition function    : becke
 partition sharpness   :           3
  

 <rddim> : input of entry tasksize
           from data group '$pardft' failed !

               Default values taken

 <rddim> : input of entry memdiv
           from data group '$pardft' failed !

               Default values taken
  RIDFT: memory allocation for DFT gridpoints
  MEMORY is divided by 1 as DEFAULT
 Each node can hold at most  the            1 -th part
 of the gridpoints    

 biggest AO integral is expected to be     6.588274874
  
           ------------------------
               RI-J - INFORMATION
           ------------------------
 
 
 **************************************************
 *      MEMORY ALLOCATION FOR PARALLEL RI-DFT     *
 **************************************************
 
 
MEMORY FOR (MU NU/ ALPHA), SEQUENTIAL RUN               4870 MByte
 
            DIFFERENCE IN MEMORY NEED:       DIAG./SLAVE  
 
      TOTAL DIFFERENCE :                   1367 MByte
 
      difference in xcore:                  131 MByte
      difference in fatmat:                 415 MByte
      getcor calls skipped by slaves:       822 MByte
 
 
           Integral memory available for diagonal.      4870 MByte
 
           Integral memory available for slave             0 MByte
 
         MEMORY FOR (MU NU/ ALPHA) ON DIAGONALIZER      4870 MByte
 
         MEMORY FOR (MU NU/ ALPHA) ON ONE SLAVE            0 MByte
 
         TOTAL MEMORY FOR (MU NU/ ALPHA),ALL NODES      4870 MByte
 
 Contributions to RI integral batches: 
  neglected integral batches:      833166
  direct contribution:             439354
  memory contribution:       43733
 Memory core needed for (P|Q) and Cholesky    119 MByte
 Memory core minimum needed except of (P|Q)    14 MByte
 Total minimum memory core needed (sum)       132 MByte
     number of direct tasks:         160
  
 ****************************************
 Memory allocated for RI-J  5002 MByte
 ****************************************
                                            

          ------------------------
          nuclear repulsion energy  :   11946.5319634    
          ------------------------

 
          -----------------
          -S integrals
          -----------------

 1e-integrals will be neglected if expon. factor < 0.489378E-15
 
          -----------------
          -T+V integrals
          -----------------

 1e-integrals will be neglected if expon. factor < 0.489378E-15
 Difference densities >>NOT<< switched on in parallel ridft!

 automatic virtual orbital shift switched on 
      shift if e(lumo)-e(homo) < 0.10000000    


 DIIS switched on: error vector is FDS-SDF
 Max. Iterations for DIIS is     :   4
 DIIS matrix (see manual) 
    Scaling factor of diagonals  :  1.200
    threshold for scaling factor :  0.000

 scf convergence criterion : increment of total energy < .1000000D-08
                  and increment of one-electron energy < .1000000D-05


 <geterg> : there is no data group $energy 

  MOs are in ASCII format !


 reading orbital data $scfmo  from file mos . 

 orbital characterization : expanded
 
 mo provided and orthogonalized by Cholesky decomposition

 DSCF restart information will be dumped onto file mos


 Starting SCF iterations


 ITERATION  ENERGY          1e-ENERGY        2e-ENERGY     RMS[dD(SAO)]   TOL
   1  -2991.8435717629    -27799.388084     12861.012549    0.000D+00 0.488D-14
                            Exc = -412.786014524     Coul =  13273.7985633    
                              N = 481.99844296    
                            current damping = 0.700
 
          max. resid. norm for Fia-block=  3.386D-01 for orbital      2a         
          max. resid. fock norm         =  7.867D+00 for orbital   4836a         

 ITERATION  ENERGY          1e-ENERGY        2e-ENERGY     RMS[dD(SAO)]   TOL
   2  -2999.5510819356    -27870.556011     12924.472966    0.481D-02 0.488D-14
                            Exc = -416.910426221     Coul =  13341.3833918    
                              N = 481.99859798    
                            current damping = 0.650
 
          Norm of current diis error:  9.3447    
          max. resid. norm for Fia-block=  1.678D-01 for orbital      6a         
          max. resid. fock norm         =  3.045D-01 for orbital   5450a         

 ITERATION  ENERGY          1e-ENERGY        2e-ENERGY     RMS[dD(SAO)]   TOL
   3  -3000.9594456971    -27888.300301     12940.808892    0.157D-02 0.488D-14
                            Exc = -419.096657274     Coul =  13359.9055489    
                              N = 481.99876027    
                            current damping = 0.550
 
          Norm of current diis error:  4.6638    
          max. resid. norm for Fia-block=  6.360D-02 for orbital    222a         
          max. resid. fock norm         =  6.733D-02 for orbital      6a         

 ITERATION  ENERGY          1e-ENERGY        2e-ENERGY     RMS[dD(SAO)]   TOL
   4  -3001.4393065847    -27899.497739     12951.526469    0.660D-03 0.488D-14
                            Exc = -419.438855451     Coul =  13370.9653247    
                              N = 481.99880497    
                            current damping = 0.450
 
          Norm of current diis error:  1.8975    
          max. resid. norm for Fia-block=  4.885D-02 for orbital     77a         
          max. resid. fock norm         =  9.785D-02 for orbital   5099a         

 ITERATION  ENERGY          1e-ENERGY        2e-ENERGY     RMS[dD(SAO)]   TOL
   5  -3001.5030012666    -27901.545682     12953.510717    0.325D-03 0.488D-14
                            Exc = -420.318615309     Coul =  13373.8293323    
                              N = 481.99887850    
                            current damping = 0.350
 
          Norm of current diis error:  1.2267    
          max. resid. norm for Fia-block=  2.548D-02 for orbital    222a         
          max. resid. fock norm         =  3.055D-02 for orbital   5446a         
          mo-orthogonalization: Cholesky decomposition

 ITERATION  ENERGY          1e-ENERGY        2e-ENERGY     RMS[dD(SAO)]   TOL
   6  -3001.5363666762    -27907.727355     12959.659025    0.197D-03 0.488D-14
                            Exc = -420.287439051     Coul =  13379.9464638    
                              N = 481.99886607    
                            current damping = 0.250
 
          Norm of current diis error: 0.56876    
          max. resid. norm for Fia-block=  1.235D-02 for orbital    224a         
          max. resid. fock norm         =  2.450D-02 for orbital   5448a         

 ITERATION  ENERGY          1e-ENERGY        2e-ENERGY     RMS[dD(SAO)]   TOL
   7  -3001.5400945694    -27902.641945     12954.569887    0.945D-04 0.488D-14
                            Exc = -420.202000851     Coul =  13374.7718880    
                              N = 481.99886826    
                            current damping = 0.300
 
          Norm of current diis error: 0.42990    
          max. resid. norm for Fia-block=  5.070D-03 for orbital    224a         
          max. resid. fock norm         =  8.871D-03 for orbital   5340a         

 ITERATION  ENERGY          1e-ENERGY        2e-ENERGY     RMS[dD(SAO)]   TOL
   8  -3001.5441635019    -27905.142080     12957.065953    0.286D-04 0.488D-14
                            Exc = -420.278775679     Coul =  13377.3447290    
                              N = 481.99886953    
                            current damping = 0.350
 
          Norm of current diis error: 0.10199    
          max. resid. norm for Fia-block=  1.679D-03 for orbital    235a         
          max. resid. fock norm         =  3.808D-03 for orbital   5475a         

 ITERATION  ENERGY          1e-ENERGY        2e-ENERGY     RMS[dD(SAO)]   TOL
   9  -3001.5441074155    -27904.975388     12956.899317    0.129D-04 0.488D-14
                            Exc = -420.300982311     Coul =  13377.2002998    
                              N = 481.99887346    
                            current damping = 0.400
 
          Norm of current diis error: 0.11326    
          max. resid. norm for Fia-block=  9.187D-04 for orbital    225a         
          max. resid. fock norm         =  1.597D-03 for orbital   5522a         

 ITERATION  ENERGY          1e-ENERGY        2e-ENERGY     RMS[dD(SAO)]   TOL
  10  -3001.5443549173    -27905.173622     12957.097303    0.546D-05 0.488D-14
                            Exc = -420.293487431     Coul =  13377.3907907    
                              N = 481.99887176    
                            current damping = 0.450
 
          Norm of current diis error: 0.40926E-01
          max. resid. norm for Fia-block=  4.107D-04 for orbital    229a         
          max. resid. fock norm         =  8.235D-04 for orbital   5475a         
          mo-orthogonalization: Cholesky decomposition

 ITERATION  ENERGY          1e-ENERGY        2e-ENERGY     RMS[dD(SAO)]   TOL
  11  -3001.5443882695    -27905.129741     12957.053389    0.299D-05 0.488D-14
                            Exc = -420.289745126     Coul =  13377.3431342    
                              N = 481.99887168    
                            current damping = 0.500
 
          Norm of current diis error: 0.11268E-01
          max. resid. norm for Fia-block=  2.052D-04 for orbital    225a         
          max. resid. fock norm         =  4.264D-04 for orbital   5383a         

 ITERATION  ENERGY          1e-ENERGY        2e-ENERGY     RMS[dD(SAO)]   TOL
  12  -3001.5443898236    -27905.149571     12957.073217    0.109D-05 0.488D-14
                            Exc = -420.289654936     Coul =  13377.3628722    
                              N = 481.99887129    
                            current damping = 0.550
 
          Norm of current diis error: 0.74904E-02
          max. resid. norm for Fia-block=  9.225D-05 for orbital    229a         
          max. resid. fock norm         =  1.639D-04 for orbital   5460a         

 ITERATION  ENERGY          1e-ENERGY        2e-ENERGY     RMS[dD(SAO)]   TOL
  13  -3001.5443910524    -27905.155403     12957.079049    0.514D-06 0.488D-14
                            Exc = -420.289173885     Coul =  13377.3682225    
                              N = 481.99887139    
                            current damping = 0.400
 
          Norm of current diis error: 0.17658E-02
          max. resid. norm for Fia-block=  2.324D-05 for orbital    240a         
          max. resid. fock norm         =  5.243D-05 for orbital   5476a         

 ITERATION  ENERGY          1e-ENERGY        2e-ENERGY     RMS[dD(SAO)]   TOL
  14  -3001.5443910901    -27905.141583     12957.065228    0.228D-06 0.488D-14
                            Exc = -420.289149862     Coul =  13377.3543783    
                              N = 481.99887143    
                            current damping = 0.450
 
          Norm of current diis error: 0.11439E-02
          max. resid. norm for Fia-block=  1.342D-05 for orbital    225a         
          max. resid. fock norm         =  2.931D-05 for orbital   5397a         

 ITERATION  ENERGY          1e-ENERGY        2e-ENERGY     RMS[dD(SAO)]   TOL
  15  -3001.5443911157    -27905.147016     12957.070661    0.102D-06 0.488D-14
                            Exc = -420.289225472     Coul =  13377.3598866    
                              N = 481.99887144    
                            current damping = 0.500
 
          Norm of current diis error: 0.41528E-03
          max. resid. norm for Fia-block=  6.493D-06 for orbital    225a         
          max. resid. fock norm         =  1.316D-05 for orbital   5397a         
          mo-orthogonalization: Cholesky decomposition

 DENSITY CONVERGED !


 ITERATION  ENERGY          1e-ENERGY        2e-ENERGY     RMS[dD(SAO)]   TOL
  16  -3001.5443911185    -27905.147251     12957.070896    0.405D-07 0.488D-14
                            Exc = -420.289206220     Coul =  13377.3601023    
                              N = 481.99887144    
                            current damping = 0.350
 
          Norm of current diis error: 0.19303E-03
          max. resid. norm for Fia-block=  2.344D-06 for orbital    223a         
          max. resid. fock norm         =  5.485D-06 for orbital   5463a         

 ENERGY & DENSITY CONVERGED !


 ITERATION  ENERGY          1e-ENERGY        2e-ENERGY     RMS[dD(SAO)]   TOL
  17  -3001.5434822141    -27905.147255     12957.071810    0.219D-07 0.488D-14
                            Exc = -420.288295721     Coul =  13377.3601052    
                              N = 481.99957169    
                            current damping = 0.200
 
          Norm of current diis error: 0.99425E-04
          max. resid. norm for Fia-block=  1.180D-06 for orbital    227a         
          max. resid. fock norm         =  2.797D-06 for orbital     41a         

 End of SCF iterations

   convergence criteria satisfied after   17 iterations


                  ------------------------------------------ 
                 |  total energy      =  -3001.54348221414  |
                  ------------------------------------------ 
                 :  kinetic energy    =   2988.17466381121  :
                 :  potential energy  =  -5989.71814602534  :
                 :  virial theorem    =      1.99554601875  :
                 :  wavefunction norm =      1.00000000000  :
                  .......................................... 


 <geterg> : there is no data group $energy 


 <skperg> : $end is missing 


 orbitals $scfmo  will be written to file mos

    irrep                237a        238a        239a        240a        241a   
 eigenvalues H         -0.19366    -0.18485    -0.17591    -0.17205    -0.15648
            eV          -5.2699     -5.0302     -4.7868     -4.6816     -4.2580
 occupation              2.0000      2.0000      2.0000      2.0000      2.0000 

    irrep                242a        243a        244a        245a        246a   
 eigenvalues H         -0.07553    -0.06315    -0.04408    -0.04227    -0.03341
            eV          -2.0553     -1.7183     -1.1995     -1.1503     -0.9092
 
 
 ! grave: sending quit signal to master process
 
 
 
 
 ==============================================================================
                           electrostatic moments
 ==============================================================================

 reference point for electrostatic moments:    0.00000   0.00000   0.00000

 
              nuc           elec       ->  total
 ------------------------------------------------------------------------------
                          charge      
 ------------------------------------------------------------------------------
         482.000000    -482.000000      -0.000000
 
 ------------------------------------------------------------------------------
                       dipole moment  
 ------------------------------------------------------------------------------
   x     -40.097755      37.257042      -2.840712
   y      44.460394     -42.884337       1.576057
   z     -17.609245      17.833211       0.223966
 
   | dipole moment | =     3.2563 a.u. =     8.2768 debye 
 
 ------------------------------------------------------------------------------
                     quadrupole moment
 ------------------------------------------------------------------------------
  xx   14998.564156  -15287.663557    -289.099401
  yy   10357.500025  -10624.140589    -266.640563
  zz   11995.470736  -12302.765662    -307.294927
  xy    -595.343822     574.951212     -20.392610
  xz     162.007222    -164.594789      -2.587567
  yz    -275.470363     274.260133      -1.210230
 
     1/3  trace=    -287.678297
     anisotropy=      50.161569
 
 ==============================================================================
 

    ridft profiling
  --------------------------------------------------------------------
             module   cpu total (s)       %  wall total (s)       %

               RIDFT         18925.3  100.00         19015.8  100.00
         Ridft_b_scf           413.8    2.19           414.4    2.18
        b_scf_prelim             0.0    0.00             0.0    0.00
        b_scf_molinp             0.0    0.00             0.0    0.00
         b_scf_init0             0.0    0.00             0.0    0.00
        b_scf_auxbas             0.0    0.00             0.0    0.00
      b_scf_symmetry             0.0    0.00             0.0    0.00
         b_scf_cosmo             0.0    0.00             0.0    0.00
        b_scf_params            53.3    0.28            53.4    0.28
          b_scf_ri-j            92.8    0.49            92.9    0.49
    b_scf_ri-j_auxpq            92.4    0.49            92.5    0.49
     ri-j_auxpq_chol             6.5    0.03             6.5    0.03
         b_scf_1elec            23.8    0.13            23.8    0.13
       b_scf_moinput           243.8    1.29           244.2    1.28
     moinput_orthmos           241.9    1.28           242.2    1.27
    b_scf_dft-dstmax             0.0    0.00             0.0    0.00
           Ridft_scf         18506.1   97.78         18596.0   97.79
          Scf_b_loop             0.0    0.00             0.0    0.00
                noga             0.0    0.00             0.0    0.00
            Scf_loop         18483.8   97.67         18570.1   97.66
     scf_loop_mkdmat            66.3    0.35            66.4    0.35
       scf_loop_ri-j          3749.8   19.81          3752.5   19.73
      parlp1.bc.dens             3.8    0.02             3.8    0.02
        parlp1.gs.gp             2.2    0.01             2.2    0.01
        parlp2.bc.gq             0.0    0.00             0.0    0.00
        scf_loop_dft         11798.7   62.34         11819.9   62.16
      pardft.bc.dens             0.0    0.00             0.0    0.00
        dft_grid_con            12.2    0.06            12.2    0.06
          dft_xcmrhf         11736.4   62.01         11757.5   61.83
          dft_getval           118.4    0.63           118.5    0.62
          funct2 dst             1.8    0.01             1.7    0.01
      funct2 f2loop1            17.9    0.09            18.0    0.09
      funct2 f2loop2            48.5    0.26            48.7    0.26
          funct2 s+c            48.5    0.26            48.5    0.25
        funct2 cmf_2            43.1    0.23            43.3    0.23
          dft_mkdens          5309.7   28.06          5319.3   27.97
        dft_mgga-fun             2.9    0.02             2.9    0.02
          dft_mkfock          6303.7   33.31          6315.3   33.21
     pardft.red.fock           893.8    4.72           895.4    4.71
     scf_loop_energy             0.5    0.00             0.5    0.00
     scf_loop_mkfock             0.8    0.00             0.8    0.00
       scf_loop_diis          1246.7    6.59          1248.2    6.56
       scf_loop_diag          1010.3    5.34          1012.4    5.32
         diag_tritrn           412.5    2.18           413.3    2.17
          diag_rdiag           595.8    3.15           597.1    3.14
     scf_loop_modump           326.0    1.72           384.4    2.02
      scf_loop_ortho           272.6    1.44           273.0    1.44
          Scf_a_loop            22.3    0.12            25.9    0.14
         Ridft_a_scf             5.4    0.03             5.4    0.03
         a_scf_fanal             5.3    0.03             5.3    0.03
 


    ------------------------------------------------------------------------
         total  cpu-time :  5 hours 15 minutes and 55 seconds
         total wall-time :  5 hours 17 minutes and 26 seconds
    ------------------------------------------------------------------------


   ****  ridft : all done  ****


    2017-11-13 17:25:57.599 

