Using Slurm to start processes with PMI2
STARTING ridft ON 8 PROCESSORS!
RUNNING PROGRAM /beegfs/modfac/apps/TURBOMOLE/7.0_intel_GA/bin/em64t-unknown-linux-gnu_mpi/ridft_mpi.
PLEASE WAIT UNTIL ridft HAS FINISHED.
Look for the output in slave1.output.
  this is node-proc. number 1 running on node c-7-20.local
  the total number of node-proc. spawned is            8
  parallel platform: MPP, or cluster with fast interconnect

 ridft (c-7-20.local) : TURBOMOLE V7.0.2( ) 15 Jan 2016 at 17:47:42
 Copyright (C) 2016 TURBOMOLE GmbH, Karlsruhe


    2018-01-24 10:31:34.942 



                                  r i d f t

                        DFT program with RI approximation 
                                for coulomb part 




                                                 
                                 References:     
                                                 
          TURBOMOLE:                             
              R. Ahlrichs, M. Baer, M. Haeser, H. Horn, and
              C. Koelmel
              Electronic structure calculations on workstation
              computers: the program system TURBOMOLE
              Chem. Phys. Lett. 162: 165 (1989)
          Density Functional:                              
              O. Treutler and R. Ahlrichs                      
              Efficient Molecular Numerical Integration Schemes
              J. Chem. Phys. 102: 346 (1995)                   
          Parallel Version:                                
              Performance of parallel TURBOMOLE for Density    
              Functional Calculations                          
              M. v. Arnim and R. Ahlrichs                      
              J. Comp. Chem. 19: 1746 (1998)                   
          RI-J Method:                                     
              Auxiliary Basis Sets to approximate Coulomb      
              Potentials                                       
              Chem. Phys. Lett. 240: 283 (1995)                
              K. Eichkorn, O. Treutler, H. Oehm, M. Haeser     
              and R. Ahlrichs                                  
              Chem. Phys. Lett. 242: 652 (1995)                
                                                           
              Auxiliary Basis Sets for Main Row Atoms and their
              Use to approximate Coulomb Potentials            
              K. Eichkorn, F. Weigend, O. Treutler and         
              R. Ahlrichs                                      
              Theo. Chem. Acc. 97: 119 (1997)                   
                                                           
              Accurate Coulomb-fitting basis sets for H to Rn 
              F. Weigend                                        
              Phys. Chem. Chem. Phys. 8: 1057 (2006)            
                                                           
          Multipole accelerated RI-J (MARI-J):             
              Fast evaluation of the Coulomb potential for     
              electron densities using multipole accelerated   
              resolution of identity approximation             
              M. Sierka, A. Hogekamp and R. Ahlrichs           
              J. Chem. Phys. 118: 9136 (2003)                  
          RI-JK Method:                                     
              A fully direct RI-HF algorithm: Implementation,
              optimised auxiliary basis sets, demonstration of
              accuracy and efficiency                         
              F. Weigend                                      
              Phys. Chem. Chem. Phys. 4: 4285 (2002)           
          Two-component HF and DFT with spin-orbit coupling:  
              Self-consistent treatment of spin-orbit         
              interactions with efficient Hartree-Fock and    
              density functional methods                      
              M. K. Armbruster, F. Weigend, C. van Wüllen and 
              W. Klopper                                      
              Phys. Chem. Chem. Phys. 10: 1748 (2008)         
          Relativistic all-electron 2c calculations           
              An efficient implementation of two-component    
              relativistic exact-decoupling methods for large 
              molecules                                       
              D. Peng, N. Middendorf, F. Weigend, M. Reiher   
              J. Chem. Phys. 138, 184105 (2013)               
                                         


 


              +--------------------------------------------------+
              |      general information about current run       |
              +--------------------------------------------------+

 

 SCF run will be profiled !


 DENSITY CONVERGENCE CHECK SWITCHED ON !
 SCF CONVERGENCE IF RMS(delta[D]) <     0.1000000000E-06

 PBE functional
 exchange:    LDA + PBE
 correlation: LDA (PW) + PBE
 A DFT calculation using the RI-J approximation will be carried out.
 Allocatable memory for RI due to $ricore (MB):       20000


              +--------------------------------------------------+
              | Atomic coordinate, charge and isotop information |
              +--------------------------------------------------+

                    atomic coordinates            atom    charge  isotop
          1.29102896    2.23612775    5.35940406    c      6.000     0
          2.68444732    0.00000000    5.34775669    c      6.000     0
          1.29102896   -2.23612775    5.35940406    c      6.000     0
         -1.34222366   -2.32479958    5.34775669    c      6.000     0
         -2.58205792    0.00000000    5.35940406    c      6.000     0
         -1.34222366    2.32479958    5.34775669    c      6.000     0
         -2.74209098    4.74944089    5.17369628    c      6.000     0
         -3.47165961    6.01309083    7.36565771    c      6.000     0
         -4.78742225    8.29205857    7.27396970    c      6.000     0
         -5.38971831    9.33526596    4.93546263    c      6.000     0
         -4.67190964    8.09198487    2.72597715    c      6.000     0
         -3.35880377    5.81761878    2.81855316    c      6.000     0
         -2.74209098   -4.74944089    5.17369628    c      6.000     0
         -3.35880377   -5.81761878    2.81855316    c      6.000     0
         -4.67190964   -8.09198487    2.72597715    c      6.000     0
         -5.38971831   -9.33526596    4.93546263    c      6.000     0
         -4.78742225   -8.29205857    7.27396970    c      6.000     0
         -3.47165961   -6.01309083    7.36565771    c      6.000     0
          5.48418196    0.00000000    5.17369628    c      6.000     0
          6.71760754    0.00000000    2.81855316    c      6.000     0
          9.34381929    0.00000000    2.72597715    c      6.000     0
         10.77943663    0.00000000    4.93546263    c      6.000     0
          9.57484449    0.00000000    7.27396970    c      6.000     0
          6.94331922    0.00000000    7.36565771    c      6.000     0
          2.56458096    4.44198451    5.30703898    f      9.000     0
         -5.12916191    0.00000000    5.30703898    f      9.000     0
          2.56458096   -4.44198451    5.30703898    f      9.000     0
         -2.90994879    5.04017915    9.65013893    f      9.000     0
         -5.47160393    9.47709601    9.40663768    f      9.000     0
         -6.65606662   11.52864556    4.82298142    f      9.000     0
         -5.29334333    9.16833958    0.50315811    f      9.000     0
         -5.29334333   -9.16833958    0.50315811    f      9.000     0
         -6.65606662  -11.52864556    4.82298142    f      9.000     0
         -5.47160393   -9.47709601    9.40663768    f      9.000     0
         -2.90994879   -5.04017915    9.65013893    f      9.000     0
         10.58668665    0.00000000    0.50315811    f      9.000     0
         13.31213324    0.00000000    4.82298142    f      9.000     0
         10.94320787    0.00000000    9.40663768    f      9.000     0
          5.81989758    0.00000000    9.65013893    f      9.000     0
         -2.31430977    4.00850211   -0.59311698    i     53.000     0
         -2.31430977   -4.00850211   -0.59311698    i     53.000     0
          4.62861954    0.00000000   -0.59311698    i     53.000     0
          3.99736087   -2.26207693   -6.71003915    c      0.000     0
          5.92734477   -2.13882400   -5.97866723    h      0.000     0
          4.10220135   -2.23748546   -8.79875309    h      0.000     0
          2.68582355   -4.65198285   -5.81886616    c      0.000     0
          3.64577576   -6.31466884   -6.59083899    h      0.000     0
          2.75180702   -4.76626957   -3.75428211    h      0.000     0
         -0.03966435   -4.59285453   -6.71003915    c      0.000     0
         -0.11338143   -4.67135331   -8.79875309    h      0.000     0
         -1.11139647   -6.20264315   -5.97866723    h      0.000     0
         -3.95769652   -2.33077759   -6.71003915    c      0.000     0
         -4.81594831   -4.06381915   -5.97866723    h      0.000     0
         -3.98881992   -2.43386785   -8.79875309    h      0.000     0
         -5.37164710    0.00000000   -5.81886616    c      0.000     0
         -5.50361403    0.00000000   -3.75428211    h      0.000     0
         -7.29155151    0.00000000   -6.59083899    h      0.000     0
         -3.95769652    2.33077759   -6.71003915    c      0.000     0
         -3.98881992    2.43386785   -8.79875309    h      0.000     0
         -4.81594831    4.06381915   -5.97866723    h      0.000     0
         -0.03966435    4.59285453   -6.71003915    c      0.000     0
         -1.11139647    6.20264315   -5.97866723    h      0.000     0
         -0.11338143    4.67135331   -8.79875309    h      0.000     0
          2.68582355    4.65198285   -5.81886616    c      0.000     0
          3.64577576    6.31466884   -6.59083899    h      0.000     0
          2.75180702    4.76626957   -3.75428211    h      0.000     0
          3.99736087    2.26207693   -6.71003915    c      0.000     0
          4.10220135    2.23748546   -8.79875309    h      0.000     0
          5.92734477    2.13882400   -5.97866723    h      0.000     0
          0.00000000    0.00000000   -6.67566966    c      0.000     0
          0.00000000    0.00000000   -8.80405438    h      0.000     0
          2.63800737    0.00000000   -5.79850129    n      0.000     0
         -1.31900368   -2.28458139   -5.79850129    n      0.000     0
         -1.31900368    2.28458139   -5.79850129    n      0.000     0
 
       center of nuclear mass  :   -0.00000000   -0.00000000    1.58306549
       center of nuclear charge:   -0.00000000    0.00000000    3.29984425

              +--------------------------------------------------+
              |               basis set information              |
              +--------------------------------------------------+

              we will work with the 1s 3p 5d 7f 9g ... basis set
              ...i.e. with spherical basis functions...

   type   atoms  prim   cont   basis
   ---------------------------------------------------------------------------
    c       34     77     55   cc-pVQZ   [5s4p3d2f1g|21s6p3d2f1g]
    f       15     77     55   cc-pVQZ   [5s4p3d2f1g|21s6p3d2f1g]
    i        3    161     67   cc-pVQZ-PP   [6s6p4d2f1g|24s18p12d2f1g]
    h       19     32     30   cc-pVQZ   [4s3p2d1f|6s3p2d1f]
    n        3     77     55   cc-pVQZ   [5s4p3d2f1g|21s6p3d2f1g]
   ---------------------------------------------------------------------------
   total:   74   5095   3631
   ---------------------------------------------------------------------------

   total number of primitive shells          :  168
   total number of contracted shells         : 1027
   total number of cartesian basis functions : 4554
   total number of SCF-basis functions       : 3631


 integral neglect threshold       :  0.73E-11
 integral storage threshold THIZE :  0.10E-04
 integral storage threshold THIME :         5

 number of unique ecp types :           1
 RI-J AUXILIARY BASIS SET information:

              we will work with the 1s 3p 5d 7f 9g ... basis set
              ...i.e. with spherical basis functions...

   type   atoms  prim   cont   basis
   ---------------------------------------------------------------------------
    c       34     70     49   cc-pVQZ   [6s4p3d1f1g|12s5p4d2f1g]
    f       15     70     49   cc-pVQZ   [6s4p3d1f1g|12s5p4d2f1g]
    i        3    160    140   universal_jkbas   [11s10p10d7f|13s12p11d8f]
    h       19     16     11   cc-pVQZ   [3s1p1d|5s2p1d]
    n        3     70     49   cc-pVQZ   [6s4p3d1f1g|12s5p4d2f1g]
   ---------------------------------------------------------------------------
   total:   74   4424   3177
   ---------------------------------------------------------------------------

   total number of primitive shells          :  124
   total number of contracted shells         :  989
   total number of cartesian basis functions : 3913
   total number of SCF-basis functions       : 3177


 symmetry group of the molecule :   c1 

 the group has the following generators :
   c1(z)

    1 symmetry operations found

 there are 1 real representations :   a   

 maximum number of shells which are related by symmetry :  1


    mo occupation :
   irrep   mo's   occupied
    a     3631      177
 
 number of basis functions   :         3631
 number of occupied orbitals :          177
 
  
           ------------------
           density functional
           ------------------
 Dummy atoms with grid-point found.
 DFT quadrature threshold dgrenze tightened by factor 1/10.

 PBE functional
 exchange:    LDA + PBE
 correlation: LDA (PW) + PBE
 Dummy atoms with grid-point found.
 DFT quadrature threshold dgrenze tightened by factor 1/10.

 Dummy atoms with grid-point found.
 DFT quadrature threshold dgrenze tightened by factor 1/10.

 grinp -> nfun, dfgga, dfhybrid 
           6 T F
 iterations will be done with small grid
  
 spherical integration : Lebedev's spherical grid
 spherical gridsize    :           5
    i.e. gridpoints    :         590
 value for diffuse not defined
 radial integration    : Chebyshev 2nd kind (scaling 3)
 radial gridsize       :           8
 integration cells     :          74
 partition function    : becke
 partition sharpness   :           3
  
 found dummy atom(s) with basis: included in dft

 <rddim> : input of entry tasksize
           from data group '$pardft' failed !

               Default values taken

 <rddim> : input of entry memdiv
           from data group '$pardft' failed !

               Default values taken
  RIDFT: memory allocation for DFT gridpoints
  MEMORY is divided by 1 as DEFAULT
 Each node can hold at most  the            1 -th part
 of the gridpoints    

 biggest AO integral is expected to be     5.406832293
  
           ------------------------
               RI-J - INFORMATION
           ------------------------
 
 
 **************************************************
 *      MEMORY ALLOCATION FOR PARALLEL RI-DFT     *
 **************************************************
 
 
MEMORY FOR (MU NU/ ALPHA), SEQUENTIAL RUN              19917 MByte
 
            DIFFERENCE IN MEMORY NEED:       DIAG./SLAVE  
 
      TOTAL DIFFERENCE :                    620 MByte
 
      difference in xcore:                   84 MByte
      difference in fatmat:                 177 MByte
      getcor calls skipped by slaves:       360 MByte
 
 
           Integral memory available for diagonal.     19917 MByte
 
           Integral memory available for slave             0 MByte
 
         MEMORY FOR (MU NU/ ALPHA) ON DIAGONALIZER     19917 MByte
 
         MEMORY FOR (MU NU/ ALPHA) ON ONE SLAVE            0 MByte
 
         TOTAL MEMORY FOR (MU NU/ ALPHA),ALL NODES     19917 MByte
 
 Contributions to RI integral batches: 
  neglected integral batches:      333156
  direct contribution:             121318
  memory contribution:       73404
 Memory core needed for (P|Q) and Cholesky     78 MByte
 Memory core minimum needed except of (P|Q)    12 MByte
 Total minimum memory core needed (sum)        89 MByte
     number of direct tasks:         160
  
 ****************************************
 Memory allocated for RI-J 20005 MByte
 ****************************************
                                            

          ------------------------
          nuclear repulsion energy  :   6675.49755796    
          ------------------------

 
          -----------------
          -S integrals
          -----------------

 1e-integrals will be neglected if expon. factor < 0.733852E-12
 
          -----------------
          -T+V integrals
          -----------------

 1e-integrals will be neglected if expon. factor < 0.733852E-12
 
           ----------------
           -ecp-  integrals
           ----------------
 Difference densities >>NOT<< switched on in parallel ridft!

 automatic virtual orbital shift switched on 
      shift if e(lumo)-e(homo) < 0.10000000    


 DIIS switched on: error vector is FDS-SDF
 Max. Iterations for DIIS is     :   4
 DIIS matrix (see manual) 
    Scaling factor of diagonals  :  1.200
    threshold for scaling factor :  0.000

 scf convergence criterion : increment of total energy < .1000000D-05
                  and increment of one-electron energy < .1000000D-02

  MOs are in ASCII format !


 reading orbital data $scfmo  from file mos . 

 orbital characterization : scfconv=6
 

 DSCF restart information will be dumped onto file mos


 Starting SCF iterations


 ITERATION  ENERGY          1e-ENERGY        2e-ENERGY     RMS[dD(SAO)]   TOL
   1  -3297.7910232126    -18182.453765     8209.1651835    0.000D+00 0.732D-11
                            Exc = -350.895428220     Coul =  8560.06061175    
                              N = 353.99966100    
                            current damping = 0.700
 
          max. resid. norm for Fia-block=  1.052D-03 for orbital     45a         
          max. resid. fock norm         =  1.187D-03 for orbital     44a         

 ITERATION  ENERGY          1e-ENERGY        2e-ENERGY     RMS[dD(SAO)]   TOL
   2  -3297.7910280584    -18182.458272     8209.1696856    0.148D-04 0.732D-11
                            Exc = -350.895509429     Coul =  8560.06519501    
                              N = 353.99966135    
                            current damping = 0.650
 
          Norm of current diis error: 0.26991E-02
          max. resid. norm for Fia-block=  4.367D-04 for orbital     45a         
          max. resid. fock norm         =  5.152D-04 for orbital     44a         

 ITERATION  ENERGY          1e-ENERGY        2e-ENERGY     RMS[dD(SAO)]   TOL
   3  -3297.7910289108    -18182.452791     8209.1642043    0.647D-05 0.732D-11
                            Exc = -350.895282845     Coul =  8560.05948716    
                              N = 353.99966142    
                            current damping = 0.700
 
          Norm of current diis error: 0.12182E-02
          max. resid. norm for Fia-block=  1.716D-04 for orbital     43a         
          max. resid. fock norm         =  1.894D-04 for orbital     44a         

 ITERATION  ENERGY          1e-ENERGY        2e-ENERGY     RMS[dD(SAO)]   TOL
   4  -3297.7910290443    -18182.458917     8209.1703305    0.257D-05 0.732D-11
                            Exc = -350.895291452     Coul =  8560.06562192    
                              N = 353.99966154    
                            current damping = 0.750
 
          Norm of current diis error: 0.96565E-03
          max. resid. norm for Fia-block=  7.151D-05 for orbital     45a         
          max. resid. fock norm         =  8.283D-05 for orbital     44a         

 ITERATION  ENERGY          1e-ENERGY        2e-ENERGY     RMS[dD(SAO)]   TOL
   5  -3297.7910290889    -18182.456602     8209.1680150    0.103D-05 0.732D-11
                            Exc = -350.895358810     Coul =  8560.06337381    
                              N = 353.99966155    
                            current damping = 0.800
 
          Norm of current diis error: 0.26052E-03
          max. resid. norm for Fia-block=  3.070D-05 for orbital     45a         
          max. resid. fock norm         =  3.788D-05 for orbital     44a         
          mo-orthogonalization: Cholesky decomposition

 ENERGY & DENSITY CONVERGED !


 ITERATION  ENERGY          1e-ENERGY        2e-ENERGY     RMS[dD(SAO)]   TOL
   6  -3297.7910542174    -18182.456185     8209.1675733    0.436D-06 0.732D-11
                            Exc = -350.895332487     Coul =  8560.06290577    
                              N = 353.99998298    
                            current damping = 0.650
 
          Norm of current diis error: 0.11047E-03
          max. resid. norm for Fia-block=  1.337D-05 for orbital     45a         
          max. resid. fock norm         =  1.534D-05 for orbital     44a         

 End of SCF iterations

   convergence criteria satisfied after    6 iterations


                  ------------------------------------------ 
                 |  total energy      =  -3297.79105421741  |
                  ------------------------------------------ 
                 :  kinetic energy    =   2733.93954717054  :
                 :  potential energy  =  -6031.73060138795  :
                 :  virial theorem    =      1.82902145776  :
                 :  wavefunction norm =      1.00000000000  :
                  .......................................... 


 orbitals $scfmo  will be written to file mos

    irrep                173a        174a        175a        176a        177a   
 eigenvalues H         -0.24631    -0.24631    -0.23873    -0.23873    -0.23274
            eV          -6.7026     -6.7025     -6.4963     -6.4962     -6.3333
 occupation              2.0000      2.0000      2.0000      2.0000      2.0000 

    irrep                178a        179a        180a        181a        182a   
 eigenvalues H         -0.11899    -0.09834    -0.09834    -0.08960    -0.08959
            eV          -3.2379     -2.6760     -2.6759     -2.4381     -2.4379
 
 
 ! grave: sending quit signal to master process
 
 
 
 
 ==============================================================================
                           electrostatic moments
 ==============================================================================

 reference point for electrostatic moments:    0.00000   0.00000   0.00000

 
              nuc           elec       ->  total
 ------------------------------------------------------------------------------
                          charge      
 ------------------------------------------------------------------------------
         354.000000    -354.000000      -0.000000
 
 ------------------------------------------------------------------------------
                       dipole moment  
 ------------------------------------------------------------------------------
   x      -0.000000       0.000175       0.000175
   y       0.000000      -0.000000      -0.000000
   z    1495.153607   -1495.667726      -0.514119
 
   | dipole moment | =     0.5141 a.u. =     1.3068 debye 
 
 ------------------------------------------------------------------------------
                     quadrupole moment
 ------------------------------------------------------------------------------
  xx   11030.127188  -11251.921831    -221.794643
  yy   11030.127188  -11251.924731    -221.797543
  zz   10482.941770  -10704.457802    -221.516032
  xy      -0.000000      -0.000000      -0.000000
  xz      -0.000000       0.002739       0.002739
  yz      -0.000000       0.000000       0.000000
 
     1/3  trace=    -221.702740
     anisotropy=       0.280112
 
 ==============================================================================
 

    ridft profiling
  --------------------------------------------------------------------
             module   cpu total (s)       %  wall total (s)       %

               RIDFT          1863.0  100.00          1964.0  100.00
         Ridft_b_scf           239.0   12.83           239.5   12.20
        b_scf_prelim             0.0    0.00             0.0    0.00
        b_scf_molinp             0.0    0.00             0.0    0.00
         b_scf_init0             0.0    0.00             0.0    0.00
        b_scf_auxbas             0.1    0.00             0.1    0.00
      b_scf_symmetry             0.0    0.00             0.0    0.00
         b_scf_cosmo             0.0    0.00             0.0    0.00
        b_scf_params            18.4    0.99            18.4    0.94
          b_scf_ri-j           145.1    7.79           145.1    7.39
    b_scf_ri-j_auxpq           145.0    7.78           145.0    7.38
     ri-j_auxpq_chol             4.5    0.24             4.5    0.23
         b_scf_1elec             4.8    0.26             5.0    0.26
       b_scf_moinput            70.6    3.79            70.9    3.61
     moinput_orthmos            54.8    2.94            54.9    2.80
    b_scf_dft-dstmax             0.0    0.00             0.0    0.00
           Ridft_scf          1620.6   86.99          1721.1   87.63
          Scf_b_loop             0.0    0.00             0.1    0.00
                noga             0.0    0.00             0.0    0.00
            Scf_loop          1611.7   86.51          1711.4   87.14
     scf_loop_mkdmat             9.5    0.51            10.0    0.51
       scf_loop_ri-j           390.1   20.94           479.5   24.42
      parlp1.bc.dens             1.2    0.06             1.2    0.06
        parlp1.gs.gp           140.0    7.51           139.9    7.12
        parlp2.bc.gq             0.0    0.00             0.0    0.00
        scf_loop_dft           807.5   43.34           807.9   41.14
      pardft.bc.dens             0.0    0.00             0.0    0.00
        dft_grid_con            12.4    0.67            12.6    0.64
           dft_xcrhf           775.8   41.64           775.9   39.50
          dft_getval            33.4    1.79            33.4    1.70
          funct2 dst             0.3    0.02             0.3    0.02
      funct2 f2loop1             6.7    0.36             6.6    0.34
      funct2 f2loop2            13.6    0.73            13.6    0.69
          funct2 s+c            12.3    0.66            12.3    0.63
        funct2 cmf_2            11.5    0.62            11.5    0.59
          dft_mkdens           424.3   22.77           424.5   21.61
         dft_gga-fun             0.3    0.01             0.3    0.01
          dft_mkfock           317.5   17.04           317.4   16.16
     pardft.red.fock           169.0    9.07           169.4    8.63
     scf_loop_energy             0.1    0.00             0.2    0.01
     scf_loop_mkfock             0.1    0.01             0.1    0.01
       scf_loop_diis           220.5   11.84           224.4   11.43
       scf_loop_diag           108.1    5.80           110.3    5.62
         diag_tritrn            41.7    2.24            43.4    2.21
          diag_rdiag            66.3    3.56            66.5    3.39
     scf_loop_modump            40.7    2.19            43.9    2.23
      scf_loop_ortho            33.4    1.79            33.4    1.70
          Scf_a_loop             8.9    0.48             9.6    0.49
         Ridft_a_scf             3.3    0.18             3.4    0.17
         a_scf_fanal             2.1    0.11             2.1    0.11
 


    ------------------------------------------------------------------------
         total  cpu-time : 31 minutes and 14 seconds
         total wall-time : 32 minutes and 55 seconds
    ------------------------------------------------------------------------


   ****  ridft : all done  ****


    2018-01-24 11:04:29.722 

