 operating system is UNIX !

 ridft (c-18-173.gp.local) : TURBOMOLE V7.2 ( 21454 ) 4 Oct 2017 at 12:48:15
 Copyright (C) 2017 TURBOMOLE GmbH, Karlsruhe


    2018-05-18 15:35:52.982 



                                  r i d f t

                        DFT program with RI approximation 
                                for coulomb part 




                                                 
                                 References:     
                                                 
          TURBOMOLE:                             
              R. Ahlrichs, M. Baer, M. Haeser, H. Horn, and
              C. Koelmel
              Electronic structure calculations on workstation
              computers: the program system TURBOMOLE
              Chem. Phys. Lett. 162: 165 (1989)
          Density Functional:                              
              O. Treutler and R. Ahlrichs                      
              Efficient Molecular Numerical Integration Schemes
              J. Chem. Phys. 102: 346 (1995)                   
          Parallel Version:                                
              Performance of parallel TURBOMOLE for Density    
              Functional Calculations                          
              M. v. Arnim and R. Ahlrichs                      
              J. Comp. Chem. 19: 1746 (1998)                   
          RI-J Method:                                     
              Auxiliary Basis Sets to approximate Coulomb      
              Potentials                                       
              Chem. Phys. Lett. 240: 283 (1995)                
              K. Eichkorn, O. Treutler, H. Oehm, M. Haeser     
              and R. Ahlrichs                                  
              Chem. Phys. Lett. 242: 652 (1995)                
                                                           
              Auxiliary Basis Sets for Main Row Atoms and their
              Use to approximate Coulomb Potentials            
              K. Eichkorn, F. Weigend, O. Treutler and         
              R. Ahlrichs                                      
              Theo. Chem. Acc. 97: 119 (1997)                   
                                                           
              Accurate Coulomb-fitting basis sets for H to Rn 
              F. Weigend                                        
              Phys. Chem. Chem. Phys. 8: 1057 (2006)            
                                                           
          Multipole accelerated RI-J (MARI-J):             
              Fast evaluation of the Coulomb potential for     
              electron densities using multipole accelerated   
              resolution of identity approximation             
              M. Sierka, A. Hogekamp and R. Ahlrichs           
              J. Chem. Phys. 118: 9136 (2003)                  
          RI-JK Method:                                     
              A fully direct RI-HF algorithm: Implementation,
              optimised auxiliary basis sets, demonstration of
              accuracy and efficiency                         
              F. Weigend                                      
              Phys. Chem. Chem. Phys. 4: 4285 (2002)           
          Two-component HF and DFT with spin-orbit coupling:  
              Self-consistent treatment of spin-orbit         
              interactions with efficient Hartree-Fock and    
              density functional methods                      
              M. K. Armbruster, F. Weigend, C. van Wüllen and 
              W. Klopper                                      
              Phys. Chem. Chem. Phys. 10: 1748 (2008)         
          Relativistic all-electron 2c calculations           
              An efficient implementation of two-component    
              relativistic exact-decoupling methods for large 
              molecules                                       
              D. Peng, N. Middendorf, F. Weigend, M. Reiher   
              J. Chem. Phys. 138, 184105 (2013)               
                                         




              +--------------------------------------------------+
              |      general information about current run       |
              +--------------------------------------------------+

 
 PBE functional
 exchange:    LDA + PBE
 correlation: LDA (PW) + PBE
 A DFT calculation using the RI-J approximation will be carried out.
 Allocatable memory for RI due to $ricore (MB):                   500


              +--------------------------------------------------+
              | Atomic coordinate, charge and isotop information |
              +--------------------------------------------------+

                    atomic coordinates            atom    charge  isotop
          4.37780247    0.08598414    0.13579268    o      8.000     0
          5.07318923   -0.99508548    1.41613566    h      1.000     0
          5.25653470   -0.80526723   -2.24934238    c      6.000     0
          4.44240838    0.42512153   -3.67252165    h      1.000     0
          7.30870866   -0.70928264   -2.38977157    h      1.000     0
          4.63605708   -2.73254127   -2.62555026    h      1.000     0
 
       center of nuclear mass  :    4.83142640   -0.38512225   -1.00411394
       center of nuclear charge:    4.89011063   -0.45308434   -1.09341226

              +--------------------------------------------------+
              |               basis set information              |
              +--------------------------------------------------+

              we will work with the 1s 3p 5d 7f 9g ... basis set
              ...i.e. with spherical basis functions...

   type   atoms  prim   cont   basis
   ---------------------------------------------------------------------------
    o        1     77     57   def2-QZVP   [7s4p3d2f1g|15s8p3d2f1g]
    h        4     33     30   def2-QZVP   [4s3p2d1f|7s3p2d1f]
    c        1     77     57   def2-QZVP   [7s4p3d2f1g|15s8p3d2f1g]
   ---------------------------------------------------------------------------
   total:    6    286    234
   ---------------------------------------------------------------------------

   total number of primitive shells          :   71
   total number of contracted shells         :   74
   total number of cartesian basis functions :  284
   total number of SCF-basis functions       :  234


 integral neglect threshold       :  0.12E-12
 integral storage threshold THIZE :  0.10E-04
 integral storage threshold THIME :         5

 RI-J AUXILIARY BASIS SET information:

              we will work with the 1s 3p 5d 7f 9g ... basis set
              ...i.e. with spherical basis functions...

   type   atoms  prim   cont   basis
   ---------------------------------------------------------------------------
    o        1     70     49   def2-QZVP   [6s4p3d1f1g|12s5p4d2f1g]
    h        4     16     11   def2-QZVP   [3s1p1d|5s2p1d]
    c        1     70     49   def2-QZVP   [6s4p3d1f1g|12s5p4d2f1g]
   ---------------------------------------------------------------------------
   total:    6    204    142
   ---------------------------------------------------------------------------

   total number of primitive shells          :   56
   total number of contracted shells         :   50
   total number of cartesian basis functions :  170
   total number of SCF-basis functions       :  142


 symmetry group of the molecule :   c1 

 the group has the following generators :
   c1(z)

    1 symmetry operations found

 there are 1 real representations :   a   

 maximum number of shells which are related by symmetry :  1


    mo occupation :
   irrep   mo's   occupied
    a      234        9
 
 number of basis functions   :                    234
 number of occupied orbitals :                      9
 
  
           ------------------
           density functional
           ------------------
 PBE functional
 exchange:    LDA + PBE
 correlation: LDA (PW) + PBE

 iterations will be done with small grid
  
 spherical integration : Lebedev's spherical grid
 spherical gridsize    :                     5
    i.e. gridpoints    :                   590
 value for diffuse not defined
 radial integration    : Chebyshev 2nd kind (scaling 3)
 radial gridsize       :                     8
 integration cells     :                     6
 partition function    : becke
 partition sharpness   :                     3
  

 biggest AO integral is expected to be     6.990327543
  
           ------------------------
               RI-J - INFORMATION
           ------------------------
 Contributions to RI integral batches: 
  neglected integral batches:                    43
  direct contribution:                            0
  memory contribution:                  2732
 Memory core needed for (P|Q) and Cholesky      1 MByte
 Memory core minimum needed except of (P|Q)     1 MByte
 Total minimum memory core needed (sum)         1 MByte
  
 ****************************************
 Memory allocated for RI-J    53 MByte
 ****************************************
                                            

          ------------------------
          nuclear repulsion energy  :   40.2946319160    
          ------------------------


         -----------------
         -S,T+V- integrals
         -----------------

 1e-integrals will be neglected if expon. factor < 0.117675E-13
 
   Difference densities algorithm switched on.
   The maximal number of linear combinations of
   difference densities is                    20 .

 DIIS switched on: error vector is FDS-SDF
 Max. Iterations for DIIS is     :   4
 DIIS matrix (see manual) 
    Scaling factor of diagonals  :  1.200
    threshold for scaling factor :  0.000

 scf convergence criterion : increment of total energy < .1000000D-08
                  and increment of one-electron energy < .1000000D-05

  MOs are in ASCII format !


 automatic virtual orbital shift switched on 
      shift if e(lumo)-e(homo) < 0.10000000    


 reading orbital data $scfmo  from file mos
 orbital characterization : expanded
 mo provided and orthogonalized by Cholesky decomposition

 DSCF restart information will be dumped onto file mos


 Starting SCF iterations

          Overall gridpoints after grid construction =         27141

 ITERATION  ENERGY          1e-ENERGY        2e-ENERGY     NORM[dD(SAO)]  TOL
   1  -115.17428741967    -236.17418442     80.705265084    0.000D+00 0.117D-12
                            Exc = -15.2630735422     Coul =  95.9683386257    
                              N = 18.000000062    
                            current damping = 0.700
 
          max. resid. norm for Fia-block=  8.271D-01 for orbital      3a         
          max. resid. fock norm         =  7.678D+01 for orbital    219a         

 ITERATION  ENERGY          1e-ENERGY        2e-ENERGY     NORM[dD(SAO)]  TOL
   2  -115.55884091969    -236.38784928     80.534376447    0.653D+00 0.837D-13
                            Exc = -15.2477504580     Coul =  95.7821269053    
                              N = 17.999998555    
                            current damping = 0.650
 
          Norm of current diis error:  1.7205    
          max. resid. norm for Fia-block=  1.385D-01 for orbital      1a         
          max. resid. fock norm         =  2.105D-01 for orbital    124a         

 ITERATION  ENERGY          1e-ENERGY        2e-ENERGY     NORM[dD(SAO)]  TOL
   3  -115.61844718156    -236.99285272     81.079773627    0.293D+00 0.633D-13
                            Exc = -15.3488598882     Coul =  96.4286335156    
                              N = 17.999998932    
                            current damping = 0.600
 
          Norm of current diis error: 0.80266    
          max. resid. norm for Fia-block=  5.638D-02 for orbital      1a         
          max. resid. fock norm         =  5.931D-02 for orbital      1a         

 ITERATION  ENERGY          1e-ENERGY        2e-ENERGY     NORM[dD(SAO)]  TOL
   4  -115.63680230083    -236.69220414     80.760769925    0.103D+00 0.517D-13
                            Exc = -15.3231557897     Coul =  96.0839257145    
                              N = 17.999999411    
                            current damping = 0.650
 
          Norm of current diis error: 0.31948    
          max. resid. norm for Fia-block=  2.179D-02 for orbital      3a         
          max. resid. fock norm         =  3.767D-02 for orbital    218a         

 ITERATION  ENERGY          1e-ENERGY        2e-ENERGY     NORM[dD(SAO)]  TOL
   5  -115.63986835003    -237.00352216     81.069021896    0.399D-01 0.465D-13
                            Exc = -15.3656151290     Coul =  96.4346370247    
                              N = 17.999999780    
                            current damping = 0.700
 
          Norm of current diis error: 0.13015    
          max. resid. norm for Fia-block=  9.008D-03 for orbital      8a         
          max. resid. fock norm         =  1.021D-02 for orbital      8a         
          mo-orthogonalization: Cholesky decomposition

 ITERATION  ENERGY          1e-ENERGY        2e-ENERGY     NORM[dD(SAO)]  TOL
   6  -115.64052020321    -236.90185708     80.966704966    0.126D-01 0.435D-13
                            Exc = -15.3564434290     Coul =  96.3231483947    
                              N = 17.999999901    
                            current damping = 0.750
 
          Norm of current diis error: 0.52008E-01
          max. resid. norm for Fia-block=  3.428D-03 for orbital      1a         
          max. resid. fock norm         =  4.899D-03 for orbital    218a         

 ITERATION  ENERGY          1e-ENERGY        2e-ENERGY     NORM[dD(SAO)]  TOL
   7  -115.64062005359    -236.92877076     80.993518787    0.203D-02 0.418D-13
                            Exc = -15.3603314543     Coul =  96.3538502408    
                              N = 17.999999974    
                            current damping = 0.800
 
          Norm of current diis error: 0.20673E-01
          max. resid. norm for Fia-block=  1.463D-03 for orbital      1a         
          max. resid. fock norm         =  2.164D-03 for orbital    218a         

 ITERATION  ENERGY          1e-ENERGY        2e-ENERGY     NORM[dD(SAO)]  TOL
   8  -115.64063708341    -236.93104365     80.995774650    0.396D-03 0.407D-13
                            Exc = -15.3610627179     Coul =  96.3568373675    
                              N = 18.000000000    
                            current damping = 0.650
 
          Norm of current diis error: 0.94483E-02
          max. resid. norm for Fia-block=  6.511D-04 for orbital      1a         
          max. resid. fock norm         =  8.871D-04 for orbital    218a         

 ITERATION  ENERGY          1e-ENERGY        2e-ENERGY     NORM[dD(SAO)]  TOL
   9  -115.64064090121    -236.93437998     80.999107162    0.851D-04 0.398D-13
                            Exc = -15.3616152081     Coul =  96.3607223704    
                              N = 18.000000015    
                            current damping = 0.500
 
          Norm of current diis error: 0.35328E-02
          max. resid. norm for Fia-block=  2.604D-04 for orbital      1a         
          max. resid. fock norm         =  3.488D-04 for orbital      8a         

 ITERATION  ENERGY          1e-ENERGY        2e-ENERGY     NORM[dD(SAO)]  TOL
  10  -115.64064147108    -236.93288774     80.997614351    0.336D-04 0.392D-13
                            Exc = -15.3615443729     Coul =  96.3591587236    
                              N = 18.000000020    
                            current damping = 0.550
 
          Norm of current diis error: 0.15809E-02
          max. resid. norm for Fia-block=  1.069D-04 for orbital      5a         
          max. resid. fock norm         =  1.819D-04 for orbital    218a         
          mo-orthogonalization: Cholesky decomposition

 ITERATION  ENERGY          1e-ENERGY        2e-ENERGY     NORM[dD(SAO)]  TOL
  11  -115.64064154587    -236.93515173     80.999878268    0.181D-04 0.388D-13
                            Exc = -15.3618269215     Coul =  96.3617051898    
                              N = 18.000000022    
                            current damping = 0.600
 
          Norm of current diis error: 0.67878E-03
          max. resid. norm for Fia-block=  4.306D-05 for orbital      8a         
          max. resid. fock norm         =  4.415D-05 for orbital      8a         

 ITERATION  ENERGY          1e-ENERGY        2e-ENERGY     NORM[dD(SAO)]  TOL
  12  -115.64064156253    -236.93448671     80.999213227    0.688D-05 0.385D-13
                            Exc = -15.3617553905     Coul =  96.3609686174    
                              N = 18.000000023    
                            current damping = 0.650
 
          Norm of current diis error: 0.19425E-03
          max. resid. norm for Fia-block=  1.267D-05 for orbital      4a         
          max. resid. fock norm         =  2.255D-05 for orbital    218a         

 ITERATION  ENERGY          1e-ENERGY        2e-ENERGY     NORM[dD(SAO)]  TOL
  13  -115.64064156372    -236.93444450     80.999171023    0.903D-06 0.382D-13
                            Exc = -15.3617571842     Coul =  96.3609282072    
                              N = 18.000000023    
                            current damping = 0.500
 
          Norm of current diis error: 0.72979E-04
          max. resid. norm for Fia-block=  4.566D-06 for orbital      1a         
          max. resid. fock norm         =  5.947D-06 for orbital      8a         

 ITERATION  ENERGY          1e-ENERGY        2e-ENERGY     NORM[dD(SAO)]  TOL
  14  -115.64064156394    -236.93448090     80.999207420    0.197D-06 0.378D-13
                            Exc = -15.3617619524     Coul =  96.3609693725    
                              N = 18.000000023    
                            current damping = 0.550
 
          Norm of current diis error: 0.21512E-04
          max. resid. norm for Fia-block=  1.499D-06 for orbital      1a         
          max. resid. fock norm         =  2.660D-06 for orbital    218a         

 ITERATION  ENERGY          1e-ENERGY        2e-ENERGY     NORM[dD(SAO)]  TOL
  15  -115.64064156396    -236.93449031     80.999216829    0.742D-07 0.375D-13
                            Exc = -15.3617634936     Coul =  96.3609803230    
                              N = 18.000000023    
                            current damping = 0.400
 
          Norm of current diis error: 0.71405E-05
          max. resid. norm for Fia-block=  5.582D-07 for orbital      8a         
          max. resid. fock norm         =  7.569D-07 for orbital      8a         
          mo-orthogonalization: Cholesky decomposition

 ITERATION  ENERGY          1e-ENERGY        2e-ENERGY     NORM[dD(SAO)]  TOL
  16  -115.64064156396    -236.93448534     80.999211864    0.144D-07 0.372D-13
                            Exc = -15.3617630969     Coul =  96.3609749611    
                              N = 18.000000023    
                            current damping = 0.450
 
          Norm of current diis error: 0.39003E-05
          max. resid. norm for Fia-block=  2.589D-07 for orbital      3a         
          max. resid. fock norm         =  4.630D-07 for orbital    218a         

 ITERATION  ENERGY          1e-ENERGY        2e-ENERGY     NORM[dD(SAO)]  TOL
  17  -115.64064156396    -236.93449054     80.999217057    0.108D-08 0.369D-13
                            Exc = -15.3617637755     Coul =  96.3609808325    
                              N = 18.000000023    
                            current damping = 0.500
 
          Norm of current diis error: 0.17426E-05
          max. resid. norm for Fia-block=  8.258D-08 for orbital      8a         
          max. resid. fock norm         =  8.457D-08 for orbital      8a         

 ENERGY CONVERGED !

          Overall gridpoints after grid construction =         91001

 ITERATION  ENERGY          1e-ENERGY        2e-ENERGY     NORM[dD(SAO)]  TOL
  18  -115.64064508475    -236.93448980     80.999212801    0.367D-09 0.365D-13
                            Exc = -15.3617671957     Coul =  96.3609799969    
                              N = 17.999999979    
                            current damping = 0.550
 
          Norm of current diis error: 0.44591E-06
          max. resid. norm for Fia-block=  2.434D-08 for orbital      8a         
          max. resid. fock norm         =  3.576D-08 for orbital     17a         

 End of SCF iterations

   convergence criteria satisfied after    18 iterations


                  ------------------------------------------ 
                 |  total energy      =   -115.64064508475  |
                  ------------------------------------------ 
                 :  kinetic energy    =    115.21895227538  :
                 :  potential energy  =   -230.85959736013  :
                 :  virial theorem    =      1.99635342047  :
                 :  wavefunction norm =      1.00000000000  :
                  .......................................... 


 <geterg> : there is no data group $energy 


 <skperg> : $end is missing 


 orbitals $scfmo  will be written to file mos

    irrep                  5a          6a          7a          8a          9a   
 eigenvalues H         -0.45861    -0.39198    -0.38004    -0.29428    -0.23012
            eV         -12.4796    -10.6664    -10.3416     -8.0077     -6.2619
 occupation              2.0000      2.0000      2.0000      2.0000      2.0000 

    irrep                 10a         11a         12a         13a         14a   
 eigenvalues H         -0.00529     0.02911     0.07163     0.07322     0.09286
            eV          -0.1440      0.7921      1.9492      1.9924      2.5269
 
 
 
 
 ==============================================================================
                           electrostatic moments
 ==============================================================================

 reference point for electrostatic moments:    0.00000   0.00000   0.00000

 
              nuc           elec       ->  total
 ------------------------------------------------------------------------------
                          charge      
 ------------------------------------------------------------------------------
          18.000000     -18.000000      -0.000000
 
 ------------------------------------------------------------------------------
                       dipole moment  
 ------------------------------------------------------------------------------
   x      88.021991     -87.639925       0.382067
   y      -8.155518       7.653335      -0.502183
   z     -19.681421      19.602511      -0.078910
 
   | dipole moment | =     0.6359 a.u. =     1.6163 debye 
 
 ------------------------------------------------------------------------------
                     quadrupole moment
 ------------------------------------------------------------------------------
  xx     439.490667    -446.213214      -6.722547
  yy      13.090665     -22.921751      -9.831086
  zz      58.602142     -67.030984      -8.428842
  xy     -43.397969      40.817685      -2.580284
  xz    -104.955551     104.890443      -0.065108
  yz      16.860342     -17.461223      -0.600880
 
     1/3  trace=      -8.327492
     anisotropy=       5.323519
 
 ==============================================================================
 


    ------------------------------------------------------------------------
         total  cpu-time :  13.73 seconds
         total wall-time :  24.23 seconds
    ------------------------------------------------------------------------

   ****  ridft : all done  ****


    2018-05-18 15:36:17.195 

