 operating system is UNIX !

 ridft (c-15-25.gp.local) : TURBOMOLE V7.2 ( 21454 ) 4 Oct 2017 at 12:48:15
 Copyright (C) 2017 TURBOMOLE GmbH, Karlsruhe


    2018-05-18 15:42:34.014 



                                  r i d f t

                        DFT program with RI approximation 
                                for coulomb part 




                                                 
                                 References:     
                                                 
          TURBOMOLE:                             
              R. Ahlrichs, M. Baer, M. Haeser, H. Horn, and
              C. Koelmel
              Electronic structure calculations on workstation
              computers: the program system TURBOMOLE
              Chem. Phys. Lett. 162: 165 (1989)
          Density Functional:                              
              O. Treutler and R. Ahlrichs                      
              Efficient Molecular Numerical Integration Schemes
              J. Chem. Phys. 102: 346 (1995)                   
          Parallel Version:                                
              Performance of parallel TURBOMOLE for Density    
              Functional Calculations                          
              M. v. Arnim and R. Ahlrichs                      
              J. Comp. Chem. 19: 1746 (1998)                   
          RI-J Method:                                     
              Auxiliary Basis Sets to approximate Coulomb      
              Potentials                                       
              Chem. Phys. Lett. 240: 283 (1995)                
              K. Eichkorn, O. Treutler, H. Oehm, M. Haeser     
              and R. Ahlrichs                                  
              Chem. Phys. Lett. 242: 652 (1995)                
                                                           
              Auxiliary Basis Sets for Main Row Atoms and their
              Use to approximate Coulomb Potentials            
              K. Eichkorn, F. Weigend, O. Treutler and         
              R. Ahlrichs                                      
              Theo. Chem. Acc. 97: 119 (1997)                   
                                                           
              Accurate Coulomb-fitting basis sets for H to Rn 
              F. Weigend                                        
              Phys. Chem. Chem. Phys. 8: 1057 (2006)            
                                                           
          Multipole accelerated RI-J (MARI-J):             
              Fast evaluation of the Coulomb potential for     
              electron densities using multipole accelerated   
              resolution of identity approximation             
              M. Sierka, A. Hogekamp and R. Ahlrichs           
              J. Chem. Phys. 118: 9136 (2003)                  
          RI-JK Method:                                     
              A fully direct RI-HF algorithm: Implementation,
              optimised auxiliary basis sets, demonstration of
              accuracy and efficiency                         
              F. Weigend                                      
              Phys. Chem. Chem. Phys. 4: 4285 (2002)           
          Two-component HF and DFT with spin-orbit coupling:  
              Self-consistent treatment of spin-orbit         
              interactions with efficient Hartree-Fock and    
              density functional methods                      
              M. K. Armbruster, F. Weigend, C. van Wüllen and 
              W. Klopper                                      
              Phys. Chem. Chem. Phys. 10: 1748 (2008)         
          Relativistic all-electron 2c calculations           
              An efficient implementation of two-component    
              relativistic exact-decoupling methods for large 
              molecules                                       
              D. Peng, N. Middendorf, F. Weigend, M. Reiher   
              J. Chem. Phys. 138, 184105 (2013)               
                                         




              +--------------------------------------------------+
              |      general information about current run       |
              +--------------------------------------------------+

 
 TPSS meta-GGA functional
 exchange:    LDA + TPSS
 correlation: LDA (PW) + TPSS
 A DFT calculation using the RI-J approximation will be carried out.
 Allocatable memory for RI due to $ricore (MB):                   500


              +--------------------------------------------------+
              | Atomic coordinate, charge and isotop information |
              +--------------------------------------------------+

                    atomic coordinates            atom    charge  isotop
         -0.91379878   -0.54398252    7.78803673    c      6.000     0
         -1.71242339   -2.65136777    7.41548369    o      8.000     0
         -2.45145450    1.45717230    8.22756715    o      8.000     0
         -4.15364819    0.78749013    8.15096570    h      1.000     0
          1.80791152    0.23017418    7.82055019    c      6.000     0
          2.99054573   -1.41422949    7.52168025    h      1.000     0
          2.14057403    1.61775026    6.34065921    h      1.000     0
          2.25636479    1.11702446    9.61919604    h      1.000     0
 
       center of nuclear mass  :   -0.87623654   -0.34554112    7.82044652
       center of nuclear charge:   -0.77226595   -0.29151183    7.82588842

              +--------------------------------------------------+
              |               basis set information              |
              +--------------------------------------------------+

              we will work with the 1s 3p 5d 7f 9g ... basis set
              ...i.e. with spherical basis functions...

   type   atoms  prim   cont   basis
   ---------------------------------------------------------------------------
    c        2     77     57   def2-QZVP   [7s4p3d2f1g|15s8p3d2f1g]
    o        2     77     57   def2-QZVP   [7s4p3d2f1g|15s8p3d2f1g]
    h        4     33     30   def2-QZVP   [4s3p2d1f|7s3p2d1f]
   ---------------------------------------------------------------------------
   total:    8    440    348
   ---------------------------------------------------------------------------

   total number of primitive shells          :   71
   total number of contracted shells         :  108
   total number of cartesian basis functions :  428
   total number of SCF-basis functions       :  348


 integral neglect threshold       :  0.78E-13
 integral storage threshold THIZE :  0.10E-04
 integral storage threshold THIME :         5

 RI-J AUXILIARY BASIS SET information:

              we will work with the 1s 3p 5d 7f 9g ... basis set
              ...i.e. with spherical basis functions...

   type   atoms  prim   cont   basis
   ---------------------------------------------------------------------------
    c        2     70     49   def2-QZVP   [6s4p3d1f1g|12s5p4d2f1g]
    o        2     70     49   def2-QZVP   [6s4p3d1f1g|12s5p4d2f1g]
    h        4     16     11   def2-QZVP   [3s1p1d|5s2p1d]
   ---------------------------------------------------------------------------
   total:    8    344    240
   ---------------------------------------------------------------------------

   total number of primitive shells          :   56
   total number of contracted shells         :   80
   total number of cartesian basis functions :  292
   total number of SCF-basis functions       :  240


 symmetry group of the molecule :   c1 

 the group has the following generators :
   c1(z)

    1 symmetry operations found

 there are 1 real representations :   a   

 maximum number of shells which are related by symmetry :  1


    mo occupation :
   irrep   mo's   occupied
    a      348       16
 
 number of basis functions   :                    348
 number of occupied orbitals :                     16
 
  
           ------------------
           density functional
           ------------------
 TPSS meta-GGA functional
 exchange:    LDA + TPSS
 correlation: LDA (PW) + TPSS

 iterations will be done with small grid
  
 spherical integration : Lebedev's spherical grid
 spherical gridsize    :                     5
    i.e. gridpoints    :                   590
 value for diffuse not defined
 radial integration    : Chebyshev 2nd kind (scaling 3)
 radial gridsize       :                     8
 integration cells     :                     8
 partition function    : becke
 partition sharpness   :                     3
  

 biggest AO integral is expected to be     6.990327543
  
           ------------------------
               RI-J - INFORMATION
           ------------------------
 Contributions to RI integral batches: 
  neglected integral batches:                   438
  direct contribution:                            0
  memory contribution:                  5448
 Memory core needed for (P|Q) and Cholesky      1 MByte
 Memory core minimum needed except of (P|Q)     1 MByte
 Total minimum memory core needed (sum)         2 MByte
  
 ****************************************
 Memory allocated for RI-J   196 MByte
 ****************************************
                                            

          ------------------------
          nuclear repulsion energy  :   121.239726580    
          ------------------------


         -----------------
         -S,T+V- integrals
         -----------------

 1e-integrals will be neglected if expon. factor < 0.780832E-14
 
   Difference densities algorithm switched on.
   The maximal number of linear combinations of
   difference densities is                    20 .

 DIIS switched on: error vector is FDS-SDF
 Max. Iterations for DIIS is     :   4
 DIIS matrix (see manual) 
    Scaling factor of diagonals  :  1.200
    threshold for scaling factor :  0.000

 scf convergence criterion : increment of total energy < .1000000D-08
                  and increment of one-electron energy < .1000000D-05

  MOs are in ASCII format !


 automatic virtual orbital shift switched on 
      shift if e(lumo)-e(homo) < 0.10000000    


 reading orbital data $scfmo  from file mos
 orbital characterization : expanded
 mo provided and orthogonalized by Cholesky decomposition

 DSCF restart information will be dumped onto file mos


 Starting SCF iterations

          Overall gridpoints after grid construction =         39468

 ITERATION  ENERGY          1e-ENERGY        2e-ENERGY     NORM[dD(SAO)]  TOL
   1  -228.16536786755    -549.11924928     199.71415484    0.000D+00 0.779D-13
                            Exc = -29.5302178831     Coul =  229.244372719    
                              N = 31.999987432    
                            current damping = 0.700
 
          max. resid. norm for Fia-block=  8.753D-01 for orbital      6a         
          max. resid. fock norm         =  8.513D+01 for orbital    324a         

 ITERATION  ENERGY          1e-ENERGY        2e-ENERGY     NORM[dD(SAO)]  TOL
   2  -229.06826965137    -551.01273840     200.70474217    0.110D+01 0.593D-13
                            Exc = -29.4152269174     Coul =  230.119969088    
                              N = 31.999989528    
                            current damping = 0.650
 
          Norm of current diis error:  2.3949    
          max. resid. norm for Fia-block=  1.665D-01 for orbital      2a         
          max. resid. fock norm         =  2.793D-01 for orbital    179a         

 ITERATION  ENERGY          1e-ENERGY        2e-ENERGY     NORM[dD(SAO)]  TOL
   3  -229.18723432061    -552.29723217     201.87027127    0.449D+00 0.426D-13
                            Exc = -29.5785415865     Coul =  231.448812856    
                              N = 31.999991051    
                            current damping = 0.550
 
          Norm of current diis error:  1.0880    
          max. resid. norm for Fia-block=  6.531D-02 for orbital      2a         
          max. resid. fock norm         =  8.017D-02 for orbital    288a         

 ITERATION  ENERGY          1e-ENERGY        2e-ENERGY     NORM[dD(SAO)]  TOL
   4  -229.22213728700    -552.00303787     201.54117400    0.190D+00 0.346D-13
                            Exc = -29.5324766618     Coul =  231.073650667    
                              N = 31.999991500    
                            current damping = 0.600
 
          Norm of current diis error: 0.42235    
          max. resid. norm for Fia-block=  2.915D-02 for orbital      6a         
          max. resid. fock norm         =  5.981D-02 for orbital    333a         

 ITERATION  ENERGY          1e-ENERGY        2e-ENERGY     NORM[dD(SAO)]  TOL
   5  -229.22670551100    -552.41958386     201.95315177    0.704D-01 0.313D-13
                            Exc = -29.5950541613     Coul =  231.548205934    
                              N = 31.999991808    
                            current damping = 0.650
 
          Norm of current diis error: 0.23576    
          max. resid. norm for Fia-block=  1.157D-02 for orbital     16a         
          max. resid. fock norm         =  1.966D-02 for orbital    347a         
          mo-orthogonalization: Cholesky decomposition

 ITERATION  ENERGY          1e-ENERGY        2e-ENERGY     NORM[dD(SAO)]  TOL
   6  -229.22850932332    -552.39637789     201.92814199    0.325D-01 0.293D-13
                            Exc = -29.5871379200     Coul =  231.515279907    
                              N = 31.999991769    
                            current damping = 0.700
 
          Norm of current diis error: 0.10320    
          max. resid. norm for Fia-block=  4.915D-03 for orbital     14a         
          max. resid. fock norm         =  1.246D-02 for orbital    348a         

 ITERATION  ENERGY          1e-ENERGY        2e-ENERGY     NORM[dD(SAO)]  TOL
   7  -229.22882756870    -552.33246610     201.86391195    0.107D-01 0.284D-13
                            Exc = -29.5812369313     Coul =  231.445148884    
                              N = 31.999991711    
                            current damping = 0.550
 
          Norm of current diis error: 0.33264E-01
          max. resid. norm for Fia-block=  1.996D-03 for orbital      5a         
          max. resid. fock norm         =  4.196D-03 for orbital    334a         

 ITERATION  ENERGY          1e-ENERGY        2e-ENERGY     NORM[dD(SAO)]  TOL
   8  -229.22886115955    -552.36306105     201.89447331    0.237D-02 0.278D-13
                            Exc = -29.5863142284     Coul =  231.480787537    
                              N = 31.999991726    
                            current damping = 0.600
 
          Norm of current diis error: 0.10940E-01
          max. resid. norm for Fia-block=  5.437D-04 for orbital     14a         
          max. resid. fock norm         =  1.581D-03 for orbital    334a         

 ITERATION  ENERGY          1e-ENERGY        2e-ENERGY     NORM[dD(SAO)]  TOL
   9  -229.22886552022    -552.37313638     201.90454428    0.124D-02 0.273D-13
                            Exc = -29.5869829857     Coul =  231.491527269    
                              N = 31.999991728    
                            current damping = 0.450
 
          Norm of current diis error: 0.41654E-02
          max. resid. norm for Fia-block=  2.965D-04 for orbital     16a         
          max. resid. fock norm         =  4.845D-04 for orbital    327a         

 ITERATION  ENERGY          1e-ENERGY        2e-ENERGY     NORM[dD(SAO)]  TOL
  10  -229.22886577920    -552.36520823     201.89661587    0.267D-03 0.270D-13
                            Exc = -29.5862691997     Coul =  231.482885066    
                              N = 31.999991722    
                            current damping = 0.500
 
          Norm of current diis error: 0.38187E-02
          max. resid. norm for Fia-block=  1.917D-04 for orbital     15a         
          max. resid. fock norm         =  4.579D-04 for orbital    347a         
          mo-orthogonalization: Cholesky decomposition

 ITERATION  ENERGY          1e-ENERGY        2e-ENERGY     NORM[dD(SAO)]  TOL
  11  -229.22886611753    -552.36658525     201.89799255    0.478D-04 0.267D-13
                            Exc = -29.5865840203     Coul =  231.484576572    
                              N = 31.999991723    
                            current damping = 0.550
 
          Norm of current diis error: 0.21640E-02
          max. resid. norm for Fia-block=  1.068D-04 for orbital      8a         
          max. resid. fock norm         =  1.884D-04 for orbital    327a         

 ITERATION  ENERGY          1e-ENERGY        2e-ENERGY     NORM[dD(SAO)]  TOL
  12  -229.22886621205    -552.37006081     201.90146802    0.301D-04 0.265D-13
                            Exc = -29.5869565380     Coul =  231.488424556    
                              N = 31.999991725    
                            current damping = 0.400
 
          Norm of current diis error: 0.99877E-03
          max. resid. norm for Fia-block=  4.078D-05 for orbital      8a         
          max. resid. fock norm         =  5.672D-05 for orbital    183a         

 ITERATION  ENERGY          1e-ENERGY        2e-ENERGY     NORM[dD(SAO)]  TOL
  13  -229.22886623386    -552.36932549     201.90073268    0.718D-05 0.261D-13
                            Exc = -29.5867948709     Coul =  231.487527551    
                              N = 31.999991724    
                            current damping = 0.450
 
          Norm of current diis error: 0.45026E-03
          max. resid. norm for Fia-block=  1.268D-05 for orbital      8a         
          max. resid. fock norm         =  2.203D-05 for orbital    327a         

 ITERATION  ENERGY          1e-ENERGY        2e-ENERGY     NORM[dD(SAO)]  TOL
  14  -229.22886623814    -552.36899690     201.90040408    0.492D-05 0.258D-13
                            Exc = -29.5867871776     Coul =  231.487191260    
                              N = 31.999991724    
                            current damping = 0.300
 
          Norm of current diis error: 0.10282E-03
          max. resid. norm for Fia-block=  4.893D-06 for orbital     16a         
          max. resid. fock norm         =  1.345D-05 for orbital    334a         

 ITERATION  ENERGY          1e-ENERGY        2e-ENERGY     NORM[dD(SAO)]  TOL
  15  -229.22886623833    -552.36911606     201.90052325    0.971D-06 0.255D-13
                            Exc = -29.5868059713     Coul =  231.487329217    
                              N = 31.999991724    
                            current damping = 0.350
 
          Norm of current diis error: 0.59522E-04
          max. resid. norm for Fia-block=  2.453D-06 for orbital     15a         
          max. resid. fock norm         =  5.646D-06 for orbital    347a         
          mo-orthogonalization: Cholesky decomposition

 ITERATION  ENERGY          1e-ENERGY        2e-ENERGY     NORM[dD(SAO)]  TOL
  16  -229.22886623843    -552.36908279     201.90048997    0.314D-06 0.252D-13
                            Exc = -29.5868018663     Coul =  231.487291840    
                              N = 31.999991724    
                            current damping = 0.400
 
          Norm of current diis error: 0.11790E-04
          max. resid. norm for Fia-block=  4.960D-07 for orbital     15a         
          max. resid. fock norm         =  1.349D-06 for orbital    334a         

 ITERATION  ENERGY          1e-ENERGY        2e-ENERGY     NORM[dD(SAO)]  TOL
  17  -229.22886623844    -552.36907163     201.90047881    0.993D-07 0.248D-13
                            Exc = -29.5868007925     Coul =  231.487279600    
                              N = 31.999991724    
                            current damping = 0.250
 
          Norm of current diis error: 0.32544E-05
          max. resid. norm for Fia-block=  1.301D-07 for orbital      8a         
          max. resid. fock norm         =  5.748D-07 for orbital    334a         

 ITERATION  ENERGY          1e-ENERGY        2e-ENERGY     NORM[dD(SAO)]  TOL
  18  -229.22886623844    -552.36907777     201.90048495    0.252D-07 0.243D-13
                            Exc = -29.5868014505     Coul =  231.487286399    
                              N = 31.999991724    
                            current damping = 0.300
 
          Norm of current diis error: 0.64758E-06
          max. resid. norm for Fia-block=  4.047D-08 for orbital     11a         
          max. resid. fock norm         =  1.460D-07 for orbital    323a         

 ENERGY CONVERGED !

          Overall gridpoints after grid construction =        127962

 ITERATION  ENERGY          1e-ENERGY        2e-ENERGY     NORM[dD(SAO)]  TOL
  19  -229.22881704092    -552.36907695     201.90053332    0.160D-07 0.241D-13
                            Exc = -29.5867522548     Coul =  231.487285579    
                              N = 31.999999729    
                            current damping = 0.350
 
          Norm of current diis error: 0.64905E-06
          max. resid. norm for Fia-block=  1.626D-08 for orbital     11a         
          max. resid. fock norm         =  3.493D-08 for orbital    323a         

 End of SCF iterations

   convergence criteria satisfied after    19 iterations


                  ------------------------------------------ 
                 |  total energy      =   -229.22881704092  |
                  ------------------------------------------ 
                 :  kinetic energy    =    228.40155083511  :
                 :  potential energy  =   -457.63036787603  :
                 :  virial theorem    =      1.99639108984  :
                 :  wavefunction norm =      1.00000000000  :
                  .......................................... 


 <geterg> : there is no data group $energy 


 <skperg> : $end is missing 


 orbitals $scfmo  will be written to file mos

    irrep                 12a         13a         14a         15a         16a   
 eigenvalues H         -0.37931    -0.35979    -0.35692    -0.29021    -0.24223
            eV         -10.3216     -9.7903     -9.7123     -7.8971     -6.5915
 occupation              2.0000      2.0000      2.0000      2.0000      2.0000 

    irrep                 17a         18a         19a         20a         21a   
 eigenvalues H         -0.03395     0.00216     0.02934     0.07222     0.07595
            eV          -0.9240      0.0589      0.7985      1.9652      2.0666
 
 
 
 
 ==============================================================================
                           electrostatic moments
 ==============================================================================

 reference point for electrostatic moments:    0.00000   0.00000   0.00000

 
              nuc           elec       ->  total
 ------------------------------------------------------------------------------
                          charge      
 ------------------------------------------------------------------------------
          32.000000     -32.000000      -0.000000
 
 ------------------------------------------------------------------------------
                       dipole moment  
 ------------------------------------------------------------------------------
   x     -24.712510      24.934745       0.222235
   y      -9.328378       9.961604       0.633226
   z     250.428429    -250.324199       0.104230
 
   | dipole moment | =     0.6791 a.u. =     1.7262 debye 
 
 ------------------------------------------------------------------------------
                     quadrupole moment
 ------------------------------------------------------------------------------
  xx     132.027014    -146.484182     -14.457168
  yy      81.803245    -103.408423     -21.605178
  zz    1968.092012   -1983.824209     -15.732197
  xy      11.706986     -13.068151      -1.361166
  xz    -196.895897     198.293578       1.397681
  yz     -59.212432      63.400414       4.187983
 
     1/3  trace=     -17.264848
     anisotropy=      10.375079
 
 ==============================================================================
 


    ------------------------------------------------------------------------
         total  cpu-time :  3 minutes and  2 seconds
         total wall-time :  4 minutes and 24 seconds
    ------------------------------------------------------------------------

   ****  ridft : all done  ****


    2018-05-18 15:46:58.182 

