
   OpenMP run-time library returned nthreads =  8
 operating system is UNIX !

 dscf (c-8-254) : TURBOMOLE V7.3 ( 22142 ) 4 Jul 2018 at 18:12:42
 Copyright (C) 2018 TURBOMOLE GmbH, Karlsruhe


    2019-04-02 15:06:46.550 



                             d s c f - program

                   idea & directorship : reinhart ahlrichs
                   program development : marco haeser
                                         michael baer
                           dft version : oliver treutler


                          quantum chemistry group
                          universitaet  karlsruhe
                                  germany




                          References             
                                                 
          TURBOMOLE:                             
              R. Ahlrichs, M. Baer, M. Haeser, H. Horn, and
              C. Koelmel
              Electronic structure calculations on workstation
              computers: the program system TURBOMOLE
              Chem. Phys. Lett. 162: 165 (1989)
          Density Functional:                              
              O. Treutler and R. Ahlrichs                      
              Efficient Molecular Numerical Integration Schemes
              J. Chem. Phys. 102: 346 (1995)                   
          Parallel Version:                                
              Performance of parallel TURBOMOLE for Density    
              Functional Calculations                          
              M. v. Arnim and R. Ahlrichs                      
              J. Comp. Chem. 19: 1746 (1998)                   
                                         




              +--------------------------------------------------+
              | Atomic coordinate, charge and isotop information |
              +--------------------------------------------------+

                    atomic coordinates            atom    charge  isotop
          0.79177046   -0.51339860    7.60610416    c      6.000     0
          3.05092420   -0.20357659    7.75069802    o      8.000     0
         -0.30332900   -2.80262221    7.98298803    o      8.000     0
          1.08458198   -3.93855264    8.34777720    h      1.000     0
         -1.13931087    1.45934607    7.00010455    c      6.000     0
         -0.23546541    3.29416876    6.91162234    h      1.000     0
         -1.99497906    1.01866914    5.18085000    h      1.000     0
         -2.62246435    1.44888360    8.42212248    h      1.000     0
 
       center of nuclear mass  :    0.59925676   -0.58111622    7.59761307
       center of nuclear charge:    0.50397476   -0.51721053    7.57403477

              +--------------------------------------------------+
              |               basis set information              |
              +--------------------------------------------------+

              we will work with the 1s 3p 5d 7f 9g ... basis set
              ...i.e. with spherical basis functions...

   type   atoms  prim   cont   basis
   ---------------------------------------------------------------------------
    c        2     77     57   def2-QZVP   [7s4p3d2f1g|15s8p3d2f1g]
    o        2     77     57   def2-QZVP   [7s4p3d2f1g|15s8p3d2f1g]
    h        4     33     30   def2-QZVP   [4s3p2d1f|7s3p2d1f]
   ---------------------------------------------------------------------------
   total:    8    440    348
   ---------------------------------------------------------------------------

   total number of primitive shells          :   71
   total number of contracted shells         :  108
   total number of cartesian basis functions :  428
   total number of SCF-basis functions       :  348


 integral neglect threshold       :  0.78E-13
 integral storage threshold THIZE :  0.10E-04
 integral storage threshold THIME :         5


 DENSITY CONVERGENCE CHECK SWITCHED ON !
 SCF CONVERGENCE IF RMS(delta[D]) <     0.1000000000E-06


 symmetry group of the molecule :   c1 

 the group has the following generators :
   c1(z)

    1 symmetry operations found

 there are 1 real representations :   a   

 maximum number of shells which are related by symmetry :  1


    mo occupation :
   irrep   mo's   occupied
    a      348       16
 
 number of basis functions   :                    348
 number of occupied orbitals :                     16
 

 automatic virtual orbital shift switched on 
      shift if e(lumo)-e(homo) < 0.10000000    


          ------------------------
          nuclear repulsion energy  :   121.235662066    
          ------------------------


         -----------------
         -S,T+V- integrals
         -----------------

 1e-integrals will be neglected if expon. factor < 0.780832E-14
 
   Difference densities algorithm switched on.
   The maximal number of linear combinations of
   difference densities is                    20 .

 DIIS switched on: error vector is FDS-SDF
 Max. Iterations for DIIS is     :   5
 DIIS matrix (see manual) 
    Scaling factor of diagonals  :  1.200
    threshold for scaling factor :  0.000

 scf convergence criterion : increment of total energy < .1000000D-08
                  and increment of one-electron energy < .1000000D-05

  MOs are in ASCII format !


 reading orbital data $scfmo  from file mos
 orbital characterization : scfconv=9

 DSCF restart information will be dumped onto file mos

 
                                              current damping :  0.700
 ITERATION  ENERGY          1e-ENERGY        2e-ENERGY     RMS[dD(SAO)]   TOL
   1  -227.87073274998    -552.27533215     203.16893734    0.000D+00 0.779D-13
          max. resid. norm for Fia-block=  2.612D-01 for orbital      2a         
          max. resid. fock norm         =  8.019D-01 for orbital    348a         
          Delta Eig. =    62.2334102341 eV 
 
                                              current damping :  0.650
 ITERATION  ENERGY          1e-ENERGY        2e-ENERGY     RMS[dD(SAO)]   TOL
   2  -227.91171422683    -551.87698121     202.72960492    0.843D-03 0.502D-13
          Norm of current diis error: 0.60491    
          max. resid. norm for Fia-block=  1.133D-01 for orbital      1a         
          max. resid. fock norm         =  3.299D-01 for orbital    348a         
          Delta Eig. =    26.5462168031 eV 
 
                                              current damping :  0.600
 ITERATION  ENERGY          1e-ENERGY        2e-ENERGY     RMS[dD(SAO)]   TOL
   3  -227.91995522351    -551.93002435     202.77440706    0.405D-03 0.381D-13
          Norm of current diis error: 0.26522    
          max. resid. norm for Fia-block=  4.734D-02 for orbital      2a         
          max. resid. fock norm         =  1.296D-01 for orbital    348a         
          Delta Eig. =    10.5228367927 eV 
 
                                              current damping :  0.450
 ITERATION  ENERGY          1e-ENERGY        2e-ENERGY     RMS[dD(SAO)]   TOL
   4  -227.92183018834    -551.94261034     202.78511808    0.195D-03 0.336D-13
          Norm of current diis error: 0.10752    
          max. resid. norm for Fia-block=  1.756D-02 for orbital      1a         
          max. resid. fock norm         =  4.944D-02 for orbital    347a         
          Delta Eig. =     4.5774001998 eV 
 
                                              current damping :  0.500
 ITERATION  ENERGY          1e-ENERGY        2e-ENERGY     RMS[dD(SAO)]   TOL
   5  -227.92219121467    -551.92966214     202.77180886    0.850D-04 0.310D-13
          Norm of current diis error: 0.39067E-01
          max. resid. norm for Fia-block=  5.532D-03 for orbital      2a         
          max. resid. fock norm         =  1.527D-02 for orbital    348a         
 mo-orthogonalization: Cholesky decomposition
          Delta Eig. =     1.3384433697 eV 
 
                                              current damping :  0.550
 ITERATION  ENERGY          1e-ENERGY        2e-ENERGY     RMS[dD(SAO)]   TOL
   6  -227.92224658317    -551.93100196     202.77309331    0.318D-04 0.294D-13
          Norm of current diis error: 0.15756E-01
          max. resid. norm for Fia-block=  1.802D-03 for orbital      1a         
          max. resid. fock norm         =  5.110D-03 for orbital    347a         
          Delta Eig. =     0.4406685620 eV 
 
                                              current damping :  0.400
 ITERATION  ENERGY          1e-ENERGY        2e-ENERGY     RMS[dD(SAO)]   TOL
   7  -227.92225722305    -551.93107463     202.77315534    0.124D-04 0.280D-13
          Norm of current diis error: 0.70879E-02
          max. resid. norm for Fia-block=  8.152D-04 for orbital     11a         
          max. resid. fock norm         =  1.797D-03 for orbital    348a         
          Delta Eig. =     0.1724358138 eV 
 
                                              current damping :  0.250
 ITERATION  ENERGY          1e-ENERGY        2e-ENERGY     RMS[dD(SAO)]   TOL
   8  -227.92225993917    -551.93109699     202.77317499    0.644D-05 0.266D-13
          Norm of current diis error: 0.28554E-02
          max. resid. norm for Fia-block=  3.581D-04 for orbital     11a         
          max. resid. fock norm         =  5.159D-04 for orbital    347a         
          Delta Eig. =     0.0557300995 eV 
 
                                              current damping :  0.100
 ITERATION  ENERGY          1e-ENERGY        2e-ENERGY     RMS[dD(SAO)]   TOL
   9  -227.92226051100    -551.93123132     202.77330875    0.303D-05 0.250D-13
          Norm of current diis error: 0.10176E-02
          max. resid. norm for Fia-block=  1.280D-04 for orbital     11a         
          max. resid. fock norm         =  1.334D-04 for orbital     16a         
          Delta Eig. =     0.0131202187 eV 
 
                                              current damping :  0.050
 ITERATION  ENERGY          1e-ENERGY        2e-ENERGY     RMS[dD(SAO)]   TOL
  10  -227.92226060027    -551.93125987     202.77333720    0.128D-05 0.236D-13
          Norm of current diis error: 0.31355E-03
          max. resid. norm for Fia-block=  4.649D-05 for orbital     15a         
          max. resid. fock norm         =  5.386D-05 for orbital     15a         
 mo-orthogonalization: Cholesky decomposition
          Delta Eig. =     0.0020953712 eV 
 
                                              current damping :  0.050
 ITERATION  ENERGY          1e-ENERGY        2e-ENERGY     RMS[dD(SAO)]   TOL
  11  -227.92226060967    -551.93127981     202.77335713    0.397D-06 0.224D-13
          Norm of current diis error: 0.16360E-03
          max. resid. norm for Fia-block=  1.778D-05 for orbital     16a         
          max. resid. fock norm         =  3.579D-05 for orbital    347a         
          Delta Eig. =     0.0012222454 eV 
 
                                              current damping :  0.050
 ITERATION  ENERGY          1e-ENERGY        2e-ENERGY     RMS[dD(SAO)]   TOL
  12  -227.92226061114    -551.93128088     202.77335821    0.144D-06 0.216D-13
          Norm of current diis error: 0.61929E-04
          max. resid. norm for Fia-block=  1.019D-05 for orbital     15a         
          max. resid. fock norm         =  1.117D-05 for orbital     15a         
          Delta Eig. =     0.0003291431 eV 

 ENERGY & DENSITY CONVERGED !

 
                                              current damping :  0.100
 ITERATION  ENERGY          1e-ENERGY        2e-ENERGY     RMS[dD(SAO)]   TOL
  13  -227.92226061149    -551.93128042     202.77335774    0.708D-07 0.222D-13
          max. resid. norm for Fia-block=  2.126D-06 for orbital     12a         
          max. resid. fock norm         =  4.148D-06 for orbital    347a         

 convergence criteria satisfied after    13 iterations


                  ------------------------------------------ 
                 |  total energy      =   -227.92226061149  |
                  ------------------------------------------ 
                 :  kinetic energy    =    227.63319931353  :
                 :  potential energy  =   -455.55545992502  :
                 :  virial theorem    =      1.99873175487  :
                 :  wavefunction norm =      1.00000000000  :
                  .......................................... 


 orbitals $scfmo  will be written to file mos

    irrep                 12a         13a         14a         15a         16a   
 eigenvalues H         -0.58713    -0.57639    -0.56433    -0.48551    -0.45761
            eV         -15.9766    -15.6845    -15.3563    -13.2115    -12.4524
 occupation              2.0000      2.0000      2.0000      2.0000      2.0000 

    irrep                 17a         18a         19a         20a         21a   
 eigenvalues H          0.10088     0.12569     0.14846     0.16238     0.17666
            eV           2.7451      3.4204      4.0399      4.4186      4.8072
 
 
 
 
 ==============================================================================
                           electrostatic moments
 ==============================================================================

 reference point for electrostatic moments:    0.00000   0.00000   0.00000

 
              nuc           elec       ->  total
 ------------------------------------------------------------------------------
                          charge      
 ------------------------------------------------------------------------------
          32.000000     -32.000000      -0.000000
 
 ------------------------------------------------------------------------------
                       dipole moment  
 ------------------------------------------------------------------------------
   x      16.127192     -16.907006      -0.779813
   y     -16.550737      16.488650      -0.062087
   z     242.369113    -242.436640      -0.067527
 
   | dipole moment | =     0.7852 a.u. =     1.9958 debye 
 
 ------------------------------------------------------------------------------
                     quadrupole moment
 ------------------------------------------------------------------------------
  xx      98.839777    -120.439377     -21.599600
  yy     107.029387    -122.056770     -15.027383
  zz    1846.766308   -1864.782271     -18.015963
  xy     -21.461913      18.985202      -2.476711
  xz     133.088521    -138.765927      -5.677406
  yz    -146.375474     145.223176      -1.152298
 
     1/3  trace=     -18.214315
     anisotropy=      12.311318
 
 ==============================================================================
 


    ------------------------------------------------------------------------
         total  cpu-time : 13 minutes and 36 seconds
         total wall-time :  1 minutes and 48 seconds
    ------------------------------------------------------------------------

   ****  dscf : all done  ****


    2019-04-02 15:08:34.897 

