
   OpenMP run-time library returned nthreads = 28
 operating system is UNIX !

 dscf (c-13-42) : TURBOMOLE V7.3 ( 22142 ) 4 Jul 2018 at 18:12:42
 Copyright (C) 2018 TURBOMOLE GmbH, Karlsruhe


    2019-04-01 21:41:54.912 



                             d s c f - program

                   idea & directorship : reinhart ahlrichs
                   program development : marco haeser
                                         michael baer
                           dft version : oliver treutler


                          quantum chemistry group
                          universitaet  karlsruhe
                                  germany




                          References             
                                                 
          TURBOMOLE:                             
              R. Ahlrichs, M. Baer, M. Haeser, H. Horn, and
              C. Koelmel
              Electronic structure calculations on workstation
              computers: the program system TURBOMOLE
              Chem. Phys. Lett. 162: 165 (1989)
          Density Functional:                              
              O. Treutler and R. Ahlrichs                      
              Efficient Molecular Numerical Integration Schemes
              J. Chem. Phys. 102: 346 (1995)                   
          Parallel Version:                                
              Performance of parallel TURBOMOLE for Density    
              Functional Calculations                          
              M. v. Arnim and R. Ahlrichs                      
              J. Comp. Chem. 19: 1746 (1998)                   
                                         




              +--------------------------------------------------+
              | Atomic coordinate, charge and isotop information |
              +--------------------------------------------------+

                    atomic coordinates            atom    charge  isotop
          4.22975174    0.48107567    0.53388399    n      7.000     0
          4.99257055    1.50137571    1.96100534    h      1.000     0
          5.01966458    1.17532561   -1.06415521    h      1.000     0
          4.93330215   -2.18567338    0.82443458    c      6.000     0
          4.12773571   -3.26476857   -0.72774007    h      1.000     0
          6.96551106   -2.53846531    0.87315814    h      1.000     0
          4.11226797   -2.91209735    2.56267271    h      1.000     0
 
       center of nuclear mass  :    4.63389855   -0.82430206    0.67661265
       center of nuclear charge:    4.69032361   -0.87695225    0.68270757

              +--------------------------------------------------+
              |               basis set information              |
              +--------------------------------------------------+

              we will work with the 1s 3p 5d 7f 9g ... basis set
              ...i.e. with spherical basis functions...

   type   atoms  prim   cont   basis
   ---------------------------------------------------------------------------
    n        1     50     30   cc-pVTZ   [4s3p2d1f|18s5p2d1f]
    h        5     16     14   cc-pVTZ   [3s2p1d|5s2p1d]
    c        1     50     30   cc-pVTZ   [4s3p2d1f|18s5p2d1f]
   ---------------------------------------------------------------------------
   total:    7    180    130
   ---------------------------------------------------------------------------

   total number of primitive shells          :   60
   total number of contracted shells         :   50
   total number of cartesian basis functions :  145
   total number of SCF-basis functions       :  130


 integral neglect threshold       :  0.23E-12
 integral storage threshold THIZE :  0.10E-04
 integral storage threshold THIME :         5


 DENSITY CONVERGENCE CHECK SWITCHED ON !
 SCF CONVERGENCE IF RMS(delta[D]) <     0.1000000000E-06


 symmetry group of the molecule :   c1 

 the group has the following generators :
   c1(z)

    1 symmetry operations found

 there are 1 real representations :   a   

 maximum number of shells which are related by symmetry :  1


    mo occupation :
   irrep   mo's   occupied
    a      130        9
 
 number of basis functions   :                    130
 number of occupied orbitals :                      9
 

 automatic virtual orbital shift switched on 
      shift if e(lumo)-e(homo) < 0.10000000    


          ------------------------
          nuclear repulsion energy  :   42.0379135714    
          ------------------------


         -----------------
         -S,T+V- integrals
         -----------------

 1e-integrals will be neglected if expon. factor < 0.230480E-13
 
   Difference densities algorithm switched on.
   The maximal number of linear combinations of
   difference densities is                    20 .

 DIIS switched on: error vector is FDS-SDF
 Max. Iterations for DIIS is     :   5
 DIIS matrix (see manual) 
    Scaling factor of diagonals  :  1.200
    threshold for scaling factor :  0.000

 scf convergence criterion : increment of total energy < .1000000D-08
                  and increment of one-electron energy < .1000000D-05

  MOs are in ASCII format !


 reading orbital data $scfmo  from file mos
 orbital characterization : scfconv=9

 DSCF restart information will be dumped onto file mos

 
                                              current damping :  0.700
 ITERATION  ENERGY          1e-ENERGY        2e-ENERGY     RMS[dD(SAO)]   TOL
   1  -95.235204896073    -211.66808233     74.394963865    0.000D+00 0.230D-12
          max. resid. norm for Fia-block=  9.317D-02 for orbital      1a         
          max. resid. fock norm         =  1.716D-01 for orbital    129a         
          Delta Eig. =    24.7384035026 eV 
 
                                              current damping :  0.650
 ITERATION  ENERGY          1e-ENERGY        2e-ENERGY     RMS[dD(SAO)]   TOL
   2  -95.249615702901    -211.43760744     74.150078162    0.113D-02 0.146D-12
          Norm of current diis error: 0.25579    
          max. resid. norm for Fia-block=  4.489D-02 for orbital      1a         
          max. resid. fock norm         =  6.197D-02 for orbital    129a         
          Delta Eig. =    11.1407843172 eV 
 
                                              current damping :  0.600
 ITERATION  ENERGY          1e-ENERGY        2e-ENERGY     RMS[dD(SAO)]   TOL
   3  -95.252470908438    -211.49856858     74.208184098    0.568D-03 0.111D-12
          Norm of current diis error: 0.11368    
          max. resid. norm for Fia-block=  1.838D-02 for orbital      1a         
          max. resid. fock norm         =  2.683D-02 for orbital    129a         
          Delta Eig. =     4.3289583735 eV 
 
                                              current damping :  0.650
 ITERATION  ENERGY          1e-ENERGY        2e-ENERGY     RMS[dD(SAO)]   TOL
   4  -95.253049773842    -211.47777801     74.186814663    0.250D-03 0.982D-13
          Norm of current diis error: 0.45263E-01
          max. resid. norm for Fia-block=  7.008D-03 for orbital      1a         
          max. resid. fock norm         =  9.567D-03 for orbital    129a         
          Delta Eig. =     1.6090065193 eV 
 
                                              current damping :  0.500
 ITERATION  ENERGY          1e-ENERGY        2e-ENERGY     RMS[dD(SAO)]   TOL
   5  -95.253140889233    -211.47559194     74.184537475    0.994D-04 0.906D-13
          Norm of current diis error: 0.19139E-01
          max. resid. norm for Fia-block=  2.713D-03 for orbital      1a         
          max. resid. fock norm         =  3.831D-03 for orbital    129a         
 mo-orthogonalization: Cholesky decomposition
          Delta Eig. =     0.6889686228 eV 
 
                                              current damping :  0.350
 ITERATION  ENERGY          1e-ENERGY        2e-ENERGY     RMS[dD(SAO)]   TOL
   6  -95.253158287348    -211.47393344     74.182861579    0.460D-04 0.840D-13
          Norm of current diis error: 0.70677E-02
          max. resid. norm for Fia-block=  8.863D-04 for orbital      7a         
          max. resid. fock norm         =  1.270D-03 for orbital    129a         
          Delta Eig. =     0.2548825042 eV 
 
                                              current damping :  0.200
 ITERATION  ENERGY          1e-ENERGY        2e-ENERGY     RMS[dD(SAO)]   TOL
   7  -95.253160884279    -211.47320547     74.182131012    0.190D-04 0.778D-13
          Norm of current diis error: 0.21891E-02
          max. resid. norm for Fia-block=  2.656D-04 for orbital      7a         
          max. resid. fock norm         =  3.244D-04 for orbital    129a         
          Delta Eig. =     0.0745142524 eV 
 
                                              current damping :  0.050
 ITERATION  ENERGY          1e-ENERGY        2e-ENERGY     RMS[dD(SAO)]   TOL
   8  -95.253161171537    -211.47302040     74.181945653    0.686D-05 0.723D-13
          Norm of current diis error: 0.55644E-03
          max. resid. norm for Fia-block=  6.427D-05 for orbital      5a         
          max. resid. fock norm         =  6.455D-05 for orbital      5a         
          Delta Eig. =     0.0139154772 eV 
 
                                              current damping :  0.050
 ITERATION  ENERGY          1e-ENERGY        2e-ENERGY     RMS[dD(SAO)]   TOL
   9  -95.253161195890    -211.47289722     74.181822452    0.223D-05 0.674D-13
          Norm of current diis error: 0.12142E-03
          max. resid. norm for Fia-block=  1.865D-05 for orbital      9a         
          max. resid. fock norm         =  1.885D-05 for orbital      9a         
          Delta Eig. =     0.0007893793 eV 
 
                                              current damping :  0.100
 ITERATION  ENERGY          1e-ENERGY        2e-ENERGY     RMS[dD(SAO)]   TOL
  10  -95.253161197559    -211.47289883     74.181824057    0.630D-06 0.638D-13
          Norm of current diis error: 0.35009E-04
          max. resid. norm for Fia-block=  6.710D-06 for orbital      9a         
          max. resid. fock norm         =  6.801D-06 for orbital      9a         
 mo-orthogonalization: Cholesky decomposition
          Delta Eig. =     0.0000532420 eV 
 
                                              current damping :  0.150
 ITERATION  ENERGY          1e-ENERGY        2e-ENERGY     RMS[dD(SAO)]   TOL
  11  -95.253161197720    -211.47288146     74.181806688    0.203D-06 0.655D-13
          Norm of current diis error: 0.10884E-04
          max. resid. norm for Fia-block=  2.594D-06 for orbital      9a         
          max. resid. fock norm         =  2.640D-06 for orbital      9a         
          Delta Eig. =     0.0000453220 eV 

 DENSITY CONVERGED !

 
                                              current damping :  0.200
 ITERATION  ENERGY          1e-ENERGY        2e-ENERGY     RMS[dD(SAO)]   TOL
  12  -95.253161197732    -211.47288771     74.181812937    0.640D-07 0.657D-13
          Norm of current diis error: 0.40525E-05
          max. resid. norm for Fia-block=  8.837D-07 for orbital      9a         
          max. resid. fock norm         =  8.994D-07 for orbital      9a         
          Delta Eig. =     0.0000202727 eV 

 ENERGY & DENSITY CONVERGED !

 
                                              current damping :  0.250
 ITERATION  ENERGY          1e-ENERGY        2e-ENERGY     RMS[dD(SAO)]   TOL
  13  -95.253161197735    -211.47288506     74.181810287    0.245D-07 0.655D-13
          max. resid. norm for Fia-block=  2.506D-07 for orbital      9a         
          max. resid. fock norm         =  2.573D-07 for orbital      9a         

 convergence criteria satisfied after    13 iterations


                  ------------------------------------------ 
                 |  total energy      =    -95.25316119773  |
                  ------------------------------------------ 
                 :  kinetic energy    =     95.14161730515  :
                 :  potential energy  =   -190.39477850289  :
                 :  virial theorem    =      1.99882897438  :
                 :  wavefunction norm =      1.00000000000  :
                  .......................................... 


 orbitals $scfmo  will be written to file mos

    irrep                  5a          6a          7a          8a          9a   
 eigenvalues H         -0.65781    -0.60181    -0.55304    -0.51517    -0.39212
            eV         -17.9000    -16.3762    -15.0492    -14.0187    -10.6703
 occupation              2.0000      2.0000      2.0000      2.0000      2.0000 

    irrep                 10a         11a         12a         13a         14a   
 eigenvalues H          0.13923     0.17848     0.19925     0.22311     0.24227
            eV           3.7886      4.8566      5.4219      6.0712      6.5927
 
 
 
 
 ==============================================================================
                           electrostatic moments
 ==============================================================================

 reference point for electrostatic moments:    0.00000   0.00000   0.00000

 
              nuc           elec       ->  total
 ------------------------------------------------------------------------------
                          charge      
 ------------------------------------------------------------------------------
          18.000000     -18.000000      -0.000000
 
 ------------------------------------------------------------------------------
                       dipole moment  
 ------------------------------------------------------------------------------
   x      84.425825     -83.864787       0.561038
   y     -15.785141      15.757211      -0.027930
   z      12.288736     -12.280817       0.007920
 
   | dipole moment | =     0.5618 a.u. =     1.4279 debye 
 
 ------------------------------------------------------------------------------
                     quadrupole moment
 ------------------------------------------------------------------------------
  xx     403.850507    -410.326293      -6.475787
  yy      59.501395     -69.350656      -9.849261
  zz      18.910649     -28.271669      -9.361019
  xy     -80.189379      80.872665       0.683286
  xz      58.275713     -58.015213       0.260500
  yz     -14.623652      14.666611       0.042958
 
     1/3  trace=      -8.562022
     anisotropy=       3.403145
 
 ==============================================================================
 


    ------------------------------------------------------------------------
         total  cpu-time :  2 minutes and 25 seconds
         total wall-time :   7.67 seconds
    ------------------------------------------------------------------------

   ****  dscf : all done  ****


    2019-04-01 21:42:02.532 

