
   OpenMP run-time library returned nthreads = 28

 ricc2 (c-13-42) : TURBOMOLE V7.3 ( 22142 ) 4 Jul 2018 at 18:12:42
 Copyright (C) 2018 TURBOMOLE GmbH, Karlsruhe


    2019-04-01 21:42:02.729 



                              R I C C 2 - PROGRAM

                          the quantum chemistry groups
                             at the universities in
                           Karlsruhe, Bochum & Mainz
                                   Germany



   *-----------------------------------------------------------------------*
   |                     program will use 28 thread(s)                     |
   *-----------------------------------------------------------------------*


              +--------------------------------------------------+
              | Atomic coordinate, charge and isotop information |
              +--------------------------------------------------+

                    atomic coordinates            atom    charge  isotop
          4.22975174    0.48107567    0.53388399    n      7.000     0
          4.99257055    1.50137571    1.96100534    h      1.000     0
          5.01966458    1.17532561   -1.06415521    h      1.000     0
          4.93330215   -2.18567338    0.82443458    c      6.000     0
          4.12773571   -3.26476857   -0.72774007    h      1.000     0
          6.96551106   -2.53846531    0.87315814    h      1.000     0
          4.11226797   -2.91209735    2.56267271    h      1.000     0
 
       center of nuclear mass  :    4.63389855   -0.82430206    0.67661265
       center of nuclear charge:    4.69032361   -0.87695225    0.68270757

              +--------------------------------------------------+
              |               basis set information              |
              +--------------------------------------------------+

              we will work with the 1s 3p 5d 7f 9g ... basis set
              ...i.e. with spherical basis functions...

   type   atoms  prim   cont   basis
   ---------------------------------------------------------------------------
    n        1     50     30   cc-pVTZ   [4s3p2d1f|18s5p2d1f]
    h        5     16     14   cc-pVTZ   [3s2p1d|5s2p1d]
    c        1     50     30   cc-pVTZ   [4s3p2d1f|18s5p2d1f]
   ---------------------------------------------------------------------------
   total:    7    180    130
   ---------------------------------------------------------------------------

   total number of primitive shells          :   60
   total number of contracted shells         :   50
   total number of cartesian basis functions :  145
   total number of SCF-basis functions       :  130


 symmetry group of the molecule :   c1 

 the group has the following generators :
   c1(z)

    1 symmetry operations found

 there are 1 real representations :   a   


   =========================================================================


     restricted closed shell calculation for the wavefunction models:
               MP2        - Second Order Moeller Plesset PT


     global parameters for ricc2 program:

        hard restart (reuse of interm.) :  disabled
        soft restart (reuse of vectors) :  disabled
        threshold for vector function   :    0.100000E-05
        convergence threshold energy    :    0.100000E-06
        linear dependence threshold     :    0.100000E-13
        global print level              :      1
        maximum number of iterations    :   300
        maximum number DIIS vectors     :    10
        max. dim. of reduced space      :   100
        core memory limit (MB)          : *****


     MP2 energy only: Energy will be calculated directly from T2 amplitudes!

     Scratch Directory : 


   =========================================================================

    der. integral neglect threshold  :  0.10E-07
    integral neglect threshold       :  0.23E-10
    integral storage threshold THIZE :  0.10E-04
    integral storage threshold THIME :         5


                  +------------------------------------------+
                  |     Auxiliary basis set information      |
                  +------------------------------------------+

              we will work with the 1s 3p 5d 7f 9g ... basis set
              ...i.e. with spherical basis functions...

   type   atoms  prim   cont   basis
   ---------------------------------------------------------------------------
    n        1     81     81   cc-pVTZ   [8s6p5d3f1g|8s6p5d3f1g]
    h        5     30     30   cc-pVTZ   [4s3p2d1f|4s3p2d1f]
    c        1     81     81   cc-pVTZ   [8s6p5d3f1g|8s6p5d3f1g]
   ---------------------------------------------------------------------------
   total:    7    312    312
   ---------------------------------------------------------------------------

   total number of primitive shells          :   56
   total number of contracted shells         :   96
   total number of cartesian basis functions :  377
   total number of SCF-basis functions       :  312


 maximum number of shells which are related by symmetry :  1


 The symmetry information takes   1 MB

*---------------------------------------------------------------------*
|               simplified C1 algorithm will be applied               |
*---------------------------------------------------------------------*
  MOs are in ASCII format !


 reading orbital data $scfmo  from file mos
 orbital characterization : scfconv=9



              +--------------------------------------------+
              | list of orbitals that will be kept frozen: |
              +--------------------------------------------+
              |   irrep   index      energy     occ/vir    |
              +--------------------------------------------+
              |   a         1      -15.5345     occupied   |
              |   a         2      -11.2387     occupied   |
              +--------------------------------------------+



   Molecular Orbital Statistic:
   ============================

   -----------------------------
   orbitals in total:
   -----------------------------
    frozen occupied :      2
    active occupied :      7
    active virtual  :    121
    frozen virtual  :      0
    all together    :    130
   -----------------------------


     time in riccmos       cpu:  1.04 sec    wall:  0.04 sec    ratio: 27.4

     total memory allocated for calculation of (Q|P)**(-1/2) : 2 MiB


     calculation of (P|Q) ...
     time in lp2sym        cpu:  0.31 sec    wall:  0.01 sec    ratio: 27.7


     calculation of the Cholesky decomposition of (P|Q)**(-1) ...
     time in invmetri      cpu:  0.43 sec    wall:  0.01 sec    ratio: 28.5

   threshold for RMS(d[D]) in SCF was     :  0.10E-06
   integral neglect threshold             :  0.23E-10
   derivative integral neglect threshold  :  0.10E-07


   =========================================================================

     Energy of reference wave function is   -95.2531611977300
     Maximum orbital residual is           0.2572932078050E-06


     Number of symmetry-nonredundant auxiliary basis functions:      312

     Block lengths for integral files:
        frozen occupied (BOI):        1 MiB
        active occupied (BJI):        1 MiB
        active virtual  (BAI):        1 MiB
        frozen virtual  (BGI):        0 MiB
               general  (BTI):        1 MiB

   =========================================================================




   **************************************************************************
   *                                                                        *
   *          OPTIMIZATION OF THE GROUND STATE CLUSTER AMPLITUDES           *
   *                                                                        *
   **************************************************************************


   Iter.   MP2 energy       Norm(Omega)   Norm(t1)  Norm(t2)     cpu    wall
   ...........................................................................
    1    -95.6576069524     ------          0.00000   0.20531    0.01    0.00
   ...........................................................................


     time in total         cpu:  0.82 sec    wall:  0.04 sec    ratio: 21.5


     **********************************************************************
     *                                                                    *
     *   RHF  energy                             :    -95.2531611977      *
     *   MP2 correlation energy (doubles)        :     -0.4044457547      *
     *                                                                    *
     *   Final MP2 energy                        :    -95.6576069524      *
     *                                                                    *
     *    E(S)   =     -0.2717742023      E(T)   =     -0.1326715524      *
     *    E(OS)  =     -0.3159980531      E(SS)  =     -0.0884477016      *
     *                                                                    *
     *   SCS-MP2 energy                          :    -95.6618414286      *
     *   (computed with  C(OS) =   1.2000  and  C(SS) =   0.3333)         *
     *                                                                    *
     *   SOS-MP2 energy                          :    -95.6639586667      *
     *   (computed with  C(OS) =   1.3000)                                *
     *                                                                    *
     *   Norm of MP1 T2 amplitudes               :      0.2053085514      *
     *                                                                    *
     **********************************************************************



    ------------------------------------------------------------------------
         total  cpu-time :  10.15 seconds
         total wall-time :   0.46 seconds
    ------------------------------------------------------------------------

   ****  ricc2 : all done  ****


    2019-04-01 21:42:03.129 

