STARTING dscf ON 120 PROCESSORS!
RUNNING PROGRAM /beegfs/modfac/apps/TURBOMOLE/7.2.1-official/bin/em64t-unknown-linux-gnu_mpi/dscf_mpi.
PLEASE WAIT UNTIL dscf HAS FINISHED.
Look for the output in slave1.output.
MACHINEFILE is ./hostlist
 this is node-proc. number 1 running on node c-15-33.local
 the total number of node-proc. spawned is 121
  parallel platform: MPP or cluster with fast interconnect

 dscf (c-15-33.local) : TURBOMOLE V7.2 ( 21471 ) 7 Nov 2017 at 16:15:16
 Copyright (C) 2017 TURBOMOLE GmbH, Karlsruhe


    2018-02-19 10:19:10.765 


 SCF run will be profiled !



                             d s c f - program

                   idea & directorship : reinhart ahlrichs
                   program development : marco haeser
                                         michael baer
                           dft version : oliver treutler
           parallelized version : malte v. arnim, gina corongiu, GMD 


                          quantum chemistry group
                          universitaet  karlsruhe
                                  germany




                          References             
                                                 
          TURBOMOLE:                             
              R. Ahlrichs, M. Baer, M. Haeser, H. Horn, and
              C. Koelmel
              Electronic structure calculations on workstation
              computers: the program system TURBOMOLE
              Chem. Phys. Lett. 162: 165 (1989)
          Density Functional:                              
              O. Treutler and R. Ahlrichs                      
              Efficient Molecular Numerical Integration Schemes
              J. Chem. Phys. 102: 346 (1995)                   
          Parallel Version:                                
              Performance of parallel TURBOMOLE for Density    
              Functional Calculations                          
              M. v. Arnim and R. Ahlrichs                      
              J. Comp. Chem. 19: 1746 (1998)                   
                                         




              +--------------------------------------------------+
              | Atomic coordinate, charge and isotop information |
              +--------------------------------------------------+

                    atomic coordinates            atom    charge  isotop
          9.54465899   -1.48066809    0.00170346    c      6.000     0
          9.54465899    1.48066809   -0.00170346    c      6.000     0
          8.13155834    2.11437977   -2.26430494    n      7.000     0
          7.63096910    0.00319214   -3.76219226    c      6.000     0
          8.38987621   -2.10766850   -2.38904049    n      7.000     0
          8.13155834   -2.11437977    2.26430494    n      7.000     0
          7.63096910   -0.00319214    3.76219226    c      6.000     0
          8.38987621    2.10766850    2.38904049    n      7.000     0
          6.78148271   -0.01113481    5.89161956    o      8.000     0
          6.78148271    0.01113481   -5.89161956    o      8.000     0
          8.02357410    4.63685176    3.34967524    c      6.000     0
          8.02741846    4.63019312   -3.34967524    c      6.000     0
          3.49003331   -9.00625120    0.00170346    c      6.000     0
          6.05462568   -7.52558311   -0.00170346    c      6.000     0
          5.89688576   -5.98494621   -2.26430494    n      7.000     0
          3.81824903   -6.60701703   -3.76219226    c      6.000     0
          2.36964364   -8.31968019   -2.38904049    n      7.000     0
          2.23467258   -8.09932598    2.26430494    n      7.000     0
          3.81272008   -6.61020917    3.76219226    c      6.000     0
          6.02023257   -6.21201168    2.38904049    n      7.000     0
          3.38109833   -5.87850371    5.89161956    o      8.000     0
          3.40038438   -5.86736890   -5.89161956    o      8.000     0
          8.02741846   -4.63019312    3.34967524    c      6.000     0
          8.02357410   -4.63685176   -3.34967524    c      6.000     0
         -3.49003331    9.00625120    0.00170346    c      6.000     0
         -6.05462568    7.52558311   -0.00170346    c      6.000     0
         -5.89688576    5.98494621   -2.26430494    n      7.000     0
         -3.81824903    6.60701703   -3.76219226    c      6.000     0
         -2.36964364    8.31968019   -2.38904049    n      7.000     0
         -2.23467258    8.09932598    2.26430494    n      7.000     0
         -3.81272008    6.61020917    3.76219226    c      6.000     0
         -6.02023257    6.21201168    2.38904049    n      7.000     0
         -3.38109833    5.87850371    5.89161956    o      8.000     0
         -3.40038438    5.86736890   -5.89161956    o      8.000     0
         -8.02741846    4.63019312    3.34967524    c      6.000     0
         -8.02357410    4.63685176   -3.34967524    c      6.000     0
          6.05462568    7.52558311    0.00170346    c      6.000     0
          3.49003331    9.00625120   -0.00170346    c      6.000     0
          2.23467258    8.09932598   -2.26430494    n      7.000     0
          3.81272008    6.61020917   -3.76219226    c      6.000     0
          6.02023257    6.21201168   -2.38904049    n      7.000     0
          5.89688576    5.98494621    2.26430494    n      7.000     0
          3.81824903    6.60701703    3.76219226    c      6.000     0
          2.36964364    8.31968019    2.38904049    n      7.000     0
          3.40038438    5.86736890    5.89161956    o      8.000     0
          3.38109833    5.87850371   -5.89161956    o      8.000     0
         -0.00384436    9.26704488    3.34967524    c      6.000     0
          0.00384436    9.26704488   -3.34967524    c      6.000     0
         -6.05462568   -7.52558311    0.00170346    c      6.000     0
         -3.49003331   -9.00625120   -0.00170346    c      6.000     0
         -2.23467258   -8.09932598   -2.26430494    n      7.000     0
         -3.81272008   -6.61020917   -3.76219226    c      6.000     0
         -6.02023257   -6.21201168   -2.38904049    n      7.000     0
         -5.89688576   -5.98494621    2.26430494    n      7.000     0
         -3.81824903   -6.60701703    3.76219226    c      6.000     0
         -2.36964364   -8.31968019    2.38904049    n      7.000     0
         -3.40038438   -5.86736890    5.89161956    o      8.000     0
         -3.38109833   -5.87850371   -5.89161956    o      8.000     0
          0.00384436   -9.26704488    3.34967524    c      6.000     0
         -0.00384436   -9.26704488   -3.34967524    c      6.000     0
         -9.54465899    1.48066809    0.00170346    c      6.000     0
         -9.54465899   -1.48066809   -0.00170346    c      6.000     0
         -8.13155834   -2.11437977   -2.26430494    n      7.000     0
         -7.63096910   -0.00319214   -3.76219226    c      6.000     0
         -8.38987621    2.10766850   -2.38904049    n      7.000     0
         -8.13155834    2.11437977    2.26430494    n      7.000     0
         -7.63096910    0.00319214    3.76219226    c      6.000     0
         -8.38987621   -2.10766850    2.38904049    n      7.000     0
         -6.78148271    0.01113481    5.89161956    o      8.000     0
         -6.78148271   -0.01113481   -5.89161956    o      8.000     0
         -8.02357410   -4.63685176    3.34967524    c      6.000     0
         -8.02741846   -4.63019312   -3.34967524    c      6.000     0
         11.45230095   -2.30264633    0.10781123    h      1.000     0
         11.45230095    2.30264633   -0.10781123    h      1.000     0
          9.75795278    5.73565762    3.03563494    h      1.000     0
          7.63464585    4.44682617    5.37067085    h      1.000     0
          9.84620159    5.58280619   -3.03563494    h      1.000     0
          7.66838735    4.38838417   -5.37067085    h      1.000     0
          3.73200025  -11.06930673    0.10781123    h      1.000     0
          7.72030070   -8.76666039   -0.10781123    h      1.000     0
          7.66838735   -4.38838417    5.37067085    h      1.000     0
          9.84620159   -5.58280619    3.03563494    h      1.000     0
          7.63464585   -4.44682617   -5.37067085    h      1.000     0
          9.75795278   -5.73565762   -3.03563494    h      1.000     0
         -3.73200025   11.06930673    0.10781123    h      1.000     0
         -7.72030070    8.76666039   -0.10781123    h      1.000     0
         -9.84620159    5.58280619    3.03563494    h      1.000     0
         -7.66838735    4.38838417    5.37067085    h      1.000     0
         -9.75795278    5.73565762   -3.03563494    h      1.000     0
         -7.63464585    4.44682617   -5.37067085    h      1.000     0
          7.72030070    8.76666039    0.10781123    h      1.000     0
          3.73200025   11.06930673   -0.10781123    h      1.000     0
         -0.03374150    8.83521034    5.37067085    h      1.000     0
         -0.08824881   11.31846381    3.03563494    h      1.000     0
          0.03374150    8.83521034   -5.37067085    h      1.000     0
          0.08824881   11.31846381   -3.03563494    h      1.000     0
         -7.72030070   -8.76666039    0.10781123    h      1.000     0
         -3.73200025  -11.06930673   -0.10781123    h      1.000     0
          0.08824881  -11.31846381    3.03563494    h      1.000     0
          0.03374150   -8.83521034    5.37067085    h      1.000     0
         -0.08824881  -11.31846381   -3.03563494    h      1.000     0
         -0.03374150   -8.83521034   -5.37067085    h      1.000     0
        -11.45230095    2.30264633    0.10781123    h      1.000     0
        -11.45230095   -2.30264633   -0.10781123    h      1.000     0
         -7.63464585   -4.44682617    5.37067085    h      1.000     0
         -9.75795278   -5.73565762    3.03563494    h      1.000     0
         -7.66838735   -4.38838417   -5.37067085    h      1.000     0
         -9.84620159   -5.58280619   -3.03563494    h      1.000     0
 
       center of nuclear mass  :   -0.00000000    0.00000000    0.00000000
       center of nuclear charge:   -0.00000000    0.00000000    0.00000000

              +--------------------------------------------------+
              |               basis set information              |
              +--------------------------------------------------+

              we will work with the 1s 3p 5d 7f 9g ... basis set
              ...i.e. with spherical basis functions...

   type   atoms  prim   cont   basis
   ---------------------------------------------------------------------------
    c       36     77     55   cc-pVQZ   [5s4p3d2f1g|21s6p3d2f1g]
    n       24     77     55   cc-pVQZ   [5s4p3d2f1g|21s6p3d2f1g]
    o       12     77     55   cc-pVQZ   [5s4p3d2f1g|21s6p3d2f1g]
    h       36     32     30   cc-pVQZ   [4s3p2d1f|6s3p2d1f]
   ---------------------------------------------------------------------------
   total:  108   6696   5040
   ---------------------------------------------------------------------------

   total number of primitive shells          :  111
   total number of contracted shells         : 1440
   total number of cartesian basis functions : 6300
   total number of SCF-basis functions       : 5040


 integral neglect threshold       :  0.53E-12
 integral storage threshold THIZE :  0.10E-04
 integral storage threshold THIME :         5


 DENSITY CONVERGENCE CHECK SWITCHED ON !
 SCF CONVERGENCE IF RMS(delta[D]) <     0.1000000000E-06


 symmetry group of the molecule :   c1 

 the group has the following generators :
   c1(z)

    1 symmetry operations found

 there are 1 real representations :   a   

 maximum number of shells which are related by symmetry :  1


    mo occupation :
   irrep   mo's   occupied
    a     5040      258
 
 number of basis functions   :                   5040
 number of occupied orbitals :                    258
 

 automatic virtual orbital shift switched on 
      shift if e(lumo)-e(homo) < 0.10000000    


   ----> a dscf RESTART run will be tried ! <----

 $restart flag 'dscf' will be switched off !


 keyword $2e-ints_shell_statistics missing in file <control>

 ! One task per shell generated
  No pre-computed optimal task distribution found
  ... using automatic task generation

          ------------------------
          nuclear repulsion energy  :   13402.2859319    
          ------------------------


         -----------------
         -S,T+V- integrals
         -----------------

 1e-integrals will be neglected if expon. factor < 0.530470E-13
 
   Difference densities algorithm switched on.
   The maximal number of linear combinations of
   difference densities is                    20 .

 DIIS switched on: error vector is FDS-SDF
 Max. Iterations for DIIS is     :   5
 DIIS matrix (see manual) 
    Scaling factor of diagonals  :  1.200
    threshold for scaling factor :  0.000

 scf convergence criterion : increment of total energy < .1000000D-06
                  and increment of one-electron energy < .1000000D-03

  MOs are in ASCII format !


 reading orbital data $scfmo  from file mos
 orbital characterization : scfdump=2

 DSCF restart information will be dumped onto file mos


 complete restart information read in from $restartd
 iterations from earlier run will be continued
no density matrices from previous iterations found
  expected :                      2  found :                      0
 
                                              current damping :  0.150
 ITERATION  ENERGY          1e-ENERGY        2e-ENERGY     RMS[dD(SAO)]   TOL
   3  -3590.8828218071    -31633.976604     14640.807850    0.400D-02 0.529D-12
          max. resid. norm for Fia-block=  5.116D-02 for orbital    235a         
          max. resid. fock norm         =  6.578D-02 for orbital   4624a         
          Delta Eig. =    48.8196849527 eV 
 
                                              current damping :  0.100
 ITERATION  ENERGY          1e-ENERGY        2e-ENERGY     RMS[dD(SAO)]   TOL
   4  -3591.0665679591    -31644.677257     14651.324757    0.390D-03 0.336D-12
          Norm of current diis error:  1.3288    
          max. resid. norm for Fia-block=  2.276D-02 for orbital    233a         
          max. resid. fock norm         =  5.984D-02 for orbital   4539a         
          Delta Eig. =     5.8588166898 eV 
 
                                              current damping :  0.150
 ITERATION  ENERGY          1e-ENERGY        2e-ENERGY     RMS[dD(SAO)]   TOL
   5  -3591.1105765244    -31639.219788     14645.823279    0.119D-03 0.277D-12
          Norm of current diis error: 0.49253    
          max. resid. norm for Fia-block=  8.633D-03 for orbital    241a         
          max. resid. fock norm         =  1.393D-02 for orbital   4624a         
 mo-orthogonalization: Cholesky decomposition
          Delta Eig. =     1.1102081094 eV 
 
                                              current damping :  0.200
 ITERATION  ENERGY          1e-ENERGY        2e-ENERGY     RMS[dD(SAO)]   TOL
   6  -3591.1182437435    -31641.130387     14647.726211    0.665D-04 0.246D-12
          Norm of current diis error: 0.10421    
          max. resid. norm for Fia-block=  2.426D-03 for orbital    254a         
          max. resid. fock norm         =  2.554D-03 for orbital    254a         
          Delta Eig. =     0.1440212711 eV 
 
                                              current damping :  0.250
 ITERATION  ENERGY          1e-ENERGY        2e-ENERGY     RMS[dD(SAO)]   TOL
   7  -3591.1187873961    -31640.820229     14647.415509    0.215D-04 0.225D-12
          Norm of current diis error: 0.42659E-01
          max. resid. norm for Fia-block=  9.477D-04 for orbital    243a         
          max. resid. fock norm         =  9.885D-04 for orbital    243a         
          Delta Eig. =     0.0339657450 eV 
 
                                              current damping :  0.300
 ITERATION  ENERGY          1e-ENERGY        2e-ENERGY     RMS[dD(SAO)]   TOL
   8  -3591.1188858786    -31640.975137     14647.570319    0.783D-05 0.211D-12
          Norm of current diis error: 0.17325E-01
          max. resid. norm for Fia-block=  5.550D-04 for orbital    242a         
          max. resid. fock norm         =  5.624D-04 for orbital    242a         
          Delta Eig. =     0.0088822022 eV 
 
                                              current damping :  0.350
 ITERATION  ENERGY          1e-ENERGY        2e-ENERGY     RMS[dD(SAO)]   TOL
   9  -3591.1189074675    -31640.947568     14647.542728    0.412D-05 0.198D-12
          Norm of current diis error: 0.72794E-02
          max. resid. norm for Fia-block=  2.671D-04 for orbital    241a         
          max. resid. fock norm         =  2.699D-04 for orbital    242a         
          Delta Eig. =     0.0021519706 eV 
 
                                              current damping :  0.400
 ITERATION  ENERGY          1e-ENERGY        2e-ENERGY     RMS[dD(SAO)]   TOL
  10  -3591.1189117192    -31640.956320     14647.551477    0.162D-05 0.188D-12
          Norm of current diis error: 0.32443E-02
          max. resid. norm for Fia-block=  1.279D-04 for orbital    241a         
          max. resid. fock norm         =  1.302D-04 for orbital    234a         
 mo-orthogonalization: Cholesky decomposition
          Delta Eig. =     0.0016585474 eV 
 
                                              current damping :  0.450
 ITERATION  ENERGY          1e-ENERGY        2e-ENERGY     RMS[dD(SAO)]   TOL
  11  -3591.1189126245    -31640.954081     14647.549237    0.668D-06 0.180D-12
          Norm of current diis error: 0.14693E-02
          max. resid. norm for Fia-block=  7.058D-05 for orbital    241a         
          max. resid. fock norm         =  7.136D-05 for orbital    241a         
          Delta Eig. =     0.0004204354 eV 
 
                                              current damping :  0.500
 ITERATION  ENERGY          1e-ENERGY        2e-ENERGY     RMS[dD(SAO)]   TOL
  12  -3591.1189128295    -31640.956901     14647.552057    0.236D-06 0.173D-12
          Norm of current diis error: 0.78999E-03
          max. resid. norm for Fia-block=  3.679D-05 for orbital    234a         
          max. resid. fock norm         =  3.979D-05 for orbital    234a         
          Delta Eig. =     0.0004833753 eV 
 
                                              current damping :  0.550
 ITERATION  ENERGY          1e-ENERGY        2e-ENERGY     RMS[dD(SAO)]   TOL
  13  -3591.1189128802    -31640.955939     14647.551094    0.114D-06 0.166D-12
          Norm of current diis error: 0.37107E-03
          max. resid. norm for Fia-block=  1.980D-05 for orbital    241a         
          max. resid. fock norm         =  2.008D-05 for orbital    241a         
          Delta Eig. =     0.0001368420 eV 

 DENSITY CONVERGED !

 
                                              current damping :  0.600
 ITERATION  ENERGY          1e-ENERGY        2e-ENERGY     RMS[dD(SAO)]   TOL
  14  -3591.1189128985    -31640.956587     14647.551742    0.467D-07 0.159D-12
          Norm of current diis error: 0.19757E-03
          max. resid. norm for Fia-block=  1.038D-05 for orbital    234a         
          max. resid. fock norm         =  1.110D-05 for orbital    234a         
          Delta Eig. =     0.0000960965 eV 

 ENERGY & DENSITY CONVERGED !

 
                                              current damping :  0.650
 ITERATION  ENERGY          1e-ENERGY        2e-ENERGY     RMS[dD(SAO)]   TOL
  15  -3591.1189129132    -31640.956475     14647.551630    0.263D-07 0.152D-12
          max. resid. norm for Fia-block=  2.529D-06 for orbital    234a         
          max. resid. fock norm         =  7.524D-06 for orbital   1059a         

 convergence criteria satisfied after    15 iterations


                  ------------------------------------------ 
                 |  total energy      =  -3591.11891291315  |
                  ------------------------------------------ 
                 :  kinetic energy    =   3585.37052228477  :
                 :  potential energy  =  -7176.48943519792  :
                 :  virial theorem    =      1.99839927589  :
                 :  wavefunction norm =      1.00000000000  :
                  .......................................... 


 <geterg> : there is no data group $energy 


 <skperg> : $end is missing 


 orbitals $scfmo  will be written to file mos

    irrep                254a        255a        256a        257a        258a   
 eigenvalues H         -0.39461    -0.39116    -0.39116    -0.38931    -0.38579
            eV         -10.7380    -10.6440    -10.6440    -10.5937    -10.4981
 occupation              2.0000      2.0000      2.0000      2.0000      2.0000 

    irrep                259a        260a        261a        262a        263a   
 eigenvalues H          0.08143     0.08405     0.08405     0.09095     0.09095
            eV           2.2159      2.2872      2.2872      2.4750      2.4750
 
 
 
 
 ==============================================================================
                           electrostatic moments
 ==============================================================================

 reference point for electrostatic moments:    0.00000   0.00000   0.00000

 
              nuc           elec       ->  total
 ------------------------------------------------------------------------------
                          charge      
 ------------------------------------------------------------------------------
         516.000000    -516.000000       0.000000
 
 ------------------------------------------------------------------------------
                       dipole moment  
 ------------------------------------------------------------------------------
   x      -0.000000       0.000000       0.000000
   y      -0.000000      -0.000000      -0.000000
   z      -0.000000       0.000000       0.000000
 
   | dipole moment | =     0.0000 a.u. =     0.0000 debye 
 
 ------------------------------------------------------------------------------
                     quadrupole moment
 ------------------------------------------------------------------------------
  xx   18917.617309  -19125.800589    -208.183280
  yy   18917.617309  -19125.800589    -208.183280
  zz    6526.186828   -6929.822634    -403.635806
  xy       0.000000       0.000000       0.000000
  xz      -0.000000       0.000000       0.000000
  yz      -0.000000       0.000000       0.000000
 
     1/3  trace=    -273.334122
     anisotropy=     195.452526
 
 ==============================================================================
 

    dscf profiling
  --------------------------------------------------------------------
             module   cpu total (s)       %  wall total (s)       %

          dscf.total         32772.3  100.00         15629.0  100.00
        dscf.prepare           133.4    0.41           134.5    0.86
      prepare.oneint             1.9    0.01             1.9    0.01
     prepare.moinput            49.9    0.15            50.0    0.32
     moinput_orthmos            80.8    0.25            81.1    0.52
            dscf.scf         32629.5   99.56         15484.9   99.08
             scf.pre            15.4    0.05            15.6    0.10
        scf.makedmat            89.9    0.27            90.2    0.58
          scf.shloop         12930.7   39.46         12935.8   82.77
          shloop_omp         12915.9   39.41         12921.0   82.67
          scf.symcar             9.8    0.03             9.8    0.06
        scf.makefock            18.5    0.06            19.1    0.12
          scf.newerg             1.3    0.00             1.3    0.01
          scf.newcnv          3956.1   12.07           141.4    0.90
           scf.fdiag         13422.7   40.96           467.8    2.99
         diag_tritrn          2468.4    7.53            83.2    0.53
          diag_rdiag         10920.0   33.32           382.1    2.44
          scf.modump          1553.9    4.74          1561.9    9.99
           ortho_all           493.9    1.51           110.7    0.71
            scf.post           133.8    0.41           131.1    0.84
        dscf.postscf             9.4    0.03             9.6    0.06
 


    ------------------------------------------------------------------------
         total  cpu-time :  9 hours  6 minutes and 14 seconds
         total wall-time :  4 hours 20 minutes and 33 seconds
    ------------------------------------------------------------------------

   ****  dscf : all done  ****


    2018-02-19 14:39:40.424 

