 this is node-proc. number 0 running on node c-15-33.local
 the total number of node-proc. spawned is 121

 dscfserver (c-15-33.local) : TURBOMOLE V7.2 ( 21471 ) 7 Nov 2017 at 16:15:16
 Copyright (C) 2017 TURBOMOLE GmbH, Karlsruhe


    2018-02-19 10:19:09.860 

 
    0:02:34 ---- Start global counter...
    0:32:11 ---- ... finished.
 
    0:35:18 ---- Start global counter...
    1:02:43 ---- ... finished.
 
    1:05:51 ---- Start global counter...
    1:31:04 ---- ... finished.
 
    1:35:04 ---- Start global counter...
    1:57:38 ---- ... finished.
 
    2:00:48 ---- Start global counter...
    2:20:46 ---- ... finished.
 
    2:23:54 ---- Start global counter...
    2:42:04 ---- ... finished.
 
    2:45:39 ---- Start global counter...
    3:00:43 ---- ... finished.
 
    3:03:53 ---- Start global counter...
    3:17:17 ---- ... finished.
 
    3:21:21 ---- Start global counter...
    3:32:47 ---- ... finished.
 
    3:36:04 ---- Start global counter...
    3:45:55 ---- ... finished.
 
    3:49:08 ---- Start global counter...
    3:57:19 ---- ... finished.
 
    4:00:30 ---- Start global counter...
    4:07:41 ---- ... finished.
 
    4:10:53 ---- Start global counter...
    4:17:56 ---- ... finished.
 
    4:20:28 ---- ByeBye Tag received


 ! Total wall-clock time in seconds  :    15627.9
 ! Time (sec) spent in global counter:    12908.4
 ! So-called SERIAL wall-clock time  :     2719.6

  *** Regular termination of server ***
 total turnaround time of dscfserver 15629.93 sec
 cpu elapsed by dscfserver process   12903.29 sec 

   ***  dscf server : all done  ***


    2018-02-19 14:39:39.785 

