
   OpenMP run-time library returned nthreads = 28
 operating system is UNIX !

 dscf (c-19-414) : TURBOMOLE V7.3 ( 22142 ) 4 Jul 2018 at 18:12:42
 Copyright (C) 2018 TURBOMOLE GmbH, Karlsruhe


    2019-04-02 19:10:12.748 



                             d s c f - program

                   idea & directorship : reinhart ahlrichs
                   program development : marco haeser
                                         michael baer
                           dft version : oliver treutler


                          quantum chemistry group
                          universitaet  karlsruhe
                                  germany




                          References             
                                                 
          TURBOMOLE:                             
              R. Ahlrichs, M. Baer, M. Haeser, H. Horn, and
              C. Koelmel
              Electronic structure calculations on workstation
              computers: the program system TURBOMOLE
              Chem. Phys. Lett. 162: 165 (1989)
          Density Functional:                              
              O. Treutler and R. Ahlrichs                      
              Efficient Molecular Numerical Integration Schemes
              J. Chem. Phys. 102: 346 (1995)                   
          Parallel Version:                                
              Performance of parallel TURBOMOLE for Density    
              Functional Calculations                          
              M. v. Arnim and R. Ahlrichs                      
              J. Comp. Chem. 19: 1746 (1998)                   
                                         




              +--------------------------------------------------+
              | Atomic coordinate, charge and isotop information |
              +--------------------------------------------------+

                    atomic coordinates            atom    charge  isotop
          1.43571787    1.94882743    0.70632746    c      6.000     0
          2.71178772    3.54449179    0.70808910    h      1.000     0
          2.39356073   -0.50524160    0.79609074    c      6.000     0
          4.41235172   -0.81103302    0.86820130    h      1.000     0
          0.74704756   -2.56245194    0.80295429    c      6.000     0
          1.49035507   -4.46446398    0.87501027    h      1.000     0
         -1.85609966   -2.16686280    0.72049633    c      6.000     0
         -3.13251646   -3.76270966    0.72777322    h      1.000     0
         -2.81445627    0.28563171    0.63791927    c      6.000     0
         -4.83381937    0.59290250    0.58150464    h      1.000     0
         -1.16931558    2.34388630    0.63094881    c      6.000     0
         -1.91195236    4.24641663    0.57517446    h      1.000     0
          0.08885294    0.57860650    6.96385486    o      8.000     0
          0.25155877    0.67285299    5.15502121    h      1.000     0
         -1.60462626   -1.41999445    7.49875137    c      6.000     0
         -1.78551216   -1.52720727    9.54142463    h      1.000     0
         -3.47951727   -1.09553274    6.69790394    h      1.000     0
         -0.91211662   -3.23987832    6.81294799    h      1.000     0
 
       center of nuclear mass  :   -0.36561518   -0.19582021    2.59514044
       center of nuclear charge:   -0.39479312   -0.22787569    2.65024699

              +--------------------------------------------------+
              |               basis set information              |
              +--------------------------------------------------+

              we will work with the 1s 3p 5d 7f 9g ... basis set
              ...i.e. with spherical basis functions...

   type   atoms  prim   cont   basis
   ---------------------------------------------------------------------------
    c        7     77     55   cc-pVQZ   [5s4p3d2f1g|21s6p3d2f1g]
    h       10     32     30   cc-pVQZ   [4s3p2d1f|6s3p2d1f]
    o        1     77     55   cc-pVQZ   [5s4p3d2f1g|21s6p3d2f1g]
   ---------------------------------------------------------------------------
   total:   18    936    740
   ---------------------------------------------------------------------------

   total number of primitive shells          :   78
   total number of contracted shells         :  220
   total number of cartesian basis functions :  910
   total number of SCF-basis functions       :  740


 integral neglect threshold       :  0.37E-13
 integral storage threshold THIZE :  0.10E-04
 integral storage threshold THIME :         5


 DENSITY CONVERGENCE CHECK SWITCHED ON !
 SCF CONVERGENCE IF RMS(delta[D]) <     0.1000000000E-06


 symmetry group of the molecule :   c1 

 the group has the following generators :
   c1(z)

    1 symmetry operations found

 there are 1 real representations :   a   

 maximum number of shells which are related by symmetry :  1


    mo occupation :
   irrep   mo's   occupied
    a      740       30
 
 number of basis functions   :                    740
 number of occupied orbitals :                     30
 

 automatic virtual orbital shift switched on 
      shift if e(lumo)-e(homo) < 0.10000000    


          ------------------------
          nuclear repulsion energy  :   349.343851598    
          ------------------------


         -----------------
         -S,T+V- integrals
         -----------------

 1e-integrals will be neglected if expon. factor < 0.367249E-14
 
   Difference densities algorithm switched on.
   The maximal number of linear combinations of
   difference densities is                    20 .

 DIIS switched on: error vector is FDS-SDF
 Max. Iterations for DIIS is     :   5
 DIIS matrix (see manual) 
    Scaling factor of diagonals  :  1.200
    threshold for scaling factor :  0.000

 scf convergence criterion : increment of total energy < .1000000D-08
                  and increment of one-electron energy < .1000000D-05

  MOs are in ASCII format !


 reading orbital data $scfmo  from file mos
 orbital characterization : scfconv=9

 DSCF restart information will be dumped onto file mos

 
                                              current damping :  0.700
 ITERATION  ENERGY          1e-ENERGY        2e-ENERGY     RMS[dD(SAO)]   TOL
   1  -345.81881627982    -1162.2703019     467.10763400    0.000D+00 0.366D-13
          max. resid. norm for Fia-block=  1.185D-01 for orbital      1a         
          max. resid. fock norm         =  2.534D-01 for orbital    739a         
          Delta Eig. =    29.9453466741 eV 
 
                                              current damping :  0.650
 ITERATION  ENERGY          1e-ENERGY        2e-ENERGY     RMS[dD(SAO)]   TOL
   2  -345.87804431952    -1161.2700105     466.04811463    0.121D-02 0.240D-13
          Norm of current diis error: 0.70752    
          max. resid. norm for Fia-block=  5.395D-02 for orbital      1a         
          max. resid. fock norm         =  9.916D-02 for orbital    740a         
          Delta Eig. =    12.7679462159 eV 
 
                                              current damping :  0.600
 ITERATION  ENERGY          1e-ENERGY        2e-ENERGY     RMS[dD(SAO)]   TOL
   3  -345.88975156701    -1161.4148016     466.18119849    0.525D-03 0.181D-13
          Norm of current diis error: 0.30984    
          max. resid. norm for Fia-block=  2.319D-02 for orbital      1a         
          max. resid. fock norm         =  3.764D-02 for orbital    739a         
          Delta Eig. =     5.1774801392 eV 
 
                                              current damping :  0.650
 ITERATION  ENERGY          1e-ENERGY        2e-ENERGY     RMS[dD(SAO)]   TOL
   4  -345.89212410982    -1161.3322108     466.09623513    0.220D-03 0.156D-13
          Norm of current diis error: 0.12430    
          max. resid. norm for Fia-block=  8.460D-03 for orbital      1a         
          max. resid. fock norm         =  1.441D-02 for orbital    740a         
          Delta Eig. =     1.9203475700 eV 
 
                                              current damping :  0.500
 ITERATION  ENERGY          1e-ENERGY        2e-ENERGY     RMS[dD(SAO)]   TOL
   5  -345.89250661021    -1161.3158785     466.07952033    0.807D-04 0.144D-13
          Norm of current diis error: 0.52073E-01
          max. resid. norm for Fia-block=  3.371D-03 for orbital      1a         
          max. resid. fock norm         =  5.423D-03 for orbital    740a         
 mo-orthogonalization: Cholesky decomposition
          Delta Eig. =     0.8087470192 eV 
 
                                              current damping :  0.350
 ITERATION  ENERGY          1e-ENERGY        2e-ENERGY     RMS[dD(SAO)]   TOL
   6  -345.89257957525    -1161.3087216     466.07229039    0.360D-04 0.134D-13
          Norm of current diis error: 0.18987E-01
          max. resid. norm for Fia-block=  1.088D-03 for orbital      1a         
          max. resid. fock norm         =  1.874D-03 for orbital    740a         
          Delta Eig. =     0.3058596529 eV 
 
                                              current damping :  0.200
 ITERATION  ENERGY          1e-ENERGY        2e-ENERGY     RMS[dD(SAO)]   TOL
   7  -345.89259021707    -1161.3050655     466.06862367    0.138D-04 0.126D-13
          Norm of current diis error: 0.56593E-02
          max. resid. norm for Fia-block=  3.374D-04 for orbital     19a         
          max. resid. fock norm         =  4.792D-04 for orbital    740a         
          Delta Eig. =     0.0879717813 eV 
 
                                              current damping :  0.050
 ITERATION  ENERGY          1e-ENERGY        2e-ENERGY     RMS[dD(SAO)]   TOL
   8  -345.89259128891    -1161.3043966     466.06795370    0.442D-05 0.119D-13
          Norm of current diis error: 0.12930E-02
          max. resid. norm for Fia-block=  7.741D-05 for orbital     19a         
          max. resid. fock norm         =  8.457D-05 for orbital    740a         
          Delta Eig. =     0.0173255172 eV 
 
                                              current damping :  0.050
 ITERATION  ENERGY          1e-ENERGY        2e-ENERGY     RMS[dD(SAO)]   TOL
   9  -345.89259135805    -1161.3039431     466.06750019    0.113D-05 0.114D-13
          Norm of current diis error: 0.23196E-03
          max. resid. norm for Fia-block=  1.340D-05 for orbital     19a         
          max. resid. fock norm         =  1.366D-05 for orbital     23a         
          Delta Eig. =     0.0010421532 eV 
 
                                              current damping :  0.100
 ITERATION  ENERGY          1e-ENERGY        2e-ENERGY     RMS[dD(SAO)]   TOL
  10  -345.89259136104    -1161.3040139     466.06757098    0.238D-06 0.110D-13
          Norm of current diis error: 0.70292E-04
          max. resid. norm for Fia-block=  5.447D-06 for orbital     17a         
          max. resid. fock norm         =  5.724D-06 for orbital     17a         
 mo-orthogonalization: Cholesky decomposition
          Delta Eig. =     0.0002134376 eV 

 DENSITY CONVERGED !

 
                                              current damping :  0.150
 ITERATION  ENERGY          1e-ENERGY        2e-ENERGY     RMS[dD(SAO)]   TOL
  11  -345.89259136134    -1161.3039387     466.06749574    0.663D-07 0.107D-13
          Norm of current diis error: 0.30634E-04
          max. resid. norm for Fia-block=  2.137D-06 for orbital     29a         
          max. resid. fock norm         =  2.443D-06 for orbital      5a         
          Delta Eig. =     0.0001115958 eV 

 DENSITY CONVERGED !

 
                                              current damping :  0.200
 ITERATION  ENERGY          1e-ENERGY        2e-ENERGY     RMS[dD(SAO)]   TOL
  12  -345.89259136140    -1161.3039655     466.06752249    0.214D-07 0.105D-13
          Norm of current diis error: 0.14663E-04
          max. resid. norm for Fia-block=  1.295D-06 for orbital     30a         
          max. resid. fock norm         =  1.296D-06 for orbital     30a         
          Delta Eig. =     0.0000238179 eV 

 ENERGY & DENSITY CONVERGED !

 
                                              current damping :  0.250
 ITERATION  ENERGY          1e-ENERGY        2e-ENERGY     RMS[dD(SAO)]   TOL
  13  -345.89259136141    -1161.3039624     466.06751943    0.869D-08 0.104D-13
          max. resid. norm for Fia-block=  5.558D-07 for orbital     29a         
          max. resid. fock norm         =  5.660D-07 for orbital     29a         

 convergence criteria satisfied after    13 iterations


                  ------------------------------------------ 
                 |  total energy      =   -345.89259136141  |
                  ------------------------------------------ 
                 :  kinetic energy    =    345.52481093356  :
                 :  potential energy  =   -691.41740229497  :
                 :  virial theorem    =      1.99893672071  :
                 :  wavefunction norm =      1.00000000000  :
                  .......................................... 


 orbitals $scfmo  will be written to file mos

    irrep                 26a         27a         28a         29a         30a   
 eigenvalues H         -0.50466    -0.48804    -0.43373    -0.34860    -0.34846
            eV         -13.7326    -13.2804    -11.8026     -9.4859     -9.4822
 occupation              2.0000      2.0000      2.0000      2.0000      2.0000 

    irrep                 31a         32a         33a         34a         35a   
 eigenvalues H          0.10627     0.11098     0.11120     0.12665     0.12967
            eV           2.8919      3.0201      3.0259      3.4465      3.5286
 
 
 
 
 ==============================================================================
                           electrostatic moments
 ==============================================================================

 reference point for electrostatic moments:    0.00000   0.00000   0.00000

 
              nuc           elec       ->  total
 ------------------------------------------------------------------------------
                          charge      
 ------------------------------------------------------------------------------
          60.000000     -60.000000       0.000000
 
 ------------------------------------------------------------------------------
                       dipole moment  
 ------------------------------------------------------------------------------
   x     -23.687587      23.397080      -0.290507
   y     -13.672541      13.288337      -0.384204
   z     159.014819    -159.686923      -0.672103
 
   | dipole moment | =     0.8269 a.u. =     2.1017 debye 
 
 ------------------------------------------------------------------------------
                     quadrupole moment
 ------------------------------------------------------------------------------
  xx     224.072681    -257.194173     -33.121492
  yy     220.293134    -253.681865     -33.388732
  zz     956.069749   -1002.703985     -46.634236
  xy      24.837195     -24.585604       0.251590
  xz    -113.746968     111.432985      -2.313983
  yz     -80.120729      76.554009      -3.566720
 
     1/3  trace=     -37.714820
     anisotropy=      15.279805
 
 ==============================================================================
 


    ------------------------------------------------------------------------
         total  cpu-time :  1 hours 39 minutes and  1 seconds
         total wall-time :  6 minutes and  2 seconds
    ------------------------------------------------------------------------

   ****  dscf : all done  ****


    2019-04-02 19:16:14.366 

