STARTING ridft ON 32 PROCESSORS!
RUNNING PROGRAM /sopt/TURBOMOLE/7.3-official/bin/em64t-unknown-linux-gnu_smp/ridft_mpi.
           SMPCPUS    set: Shared-memory Parallelization with  32 CPUs.

           SMP Parallelization Reference:
           C. van Wullen, J. Comput. Chem. 32 (2011) 1195--1201
 operating system is UNIX !

 ridft (c-15-34) : TURBOMOLE V7.3 ( 22118 ) 1 Jul 2018 at 20:38:15
 Copyright (C) 2018 TURBOMOLE GmbH, Karlsruhe


    2019-03-12 12:19:43.684 



                                  r i d f t

                        DFT program with RI approximation 
                                for coulomb part 




                                                 
                                 References:     
                                                 
          TURBOMOLE:                             
              R. Ahlrichs, M. Baer, M. Haeser, H. Horn, and
              C. Koelmel
              Electronic structure calculations on workstation
              computers: the program system TURBOMOLE
              Chem. Phys. Lett. 162: 165 (1989)
          Density Functional:                              
              O. Treutler and R. Ahlrichs                      
              Efficient Molecular Numerical Integration Schemes
              J. Chem. Phys. 102: 346 (1995)                   
          Parallel Version:                                
              Performance of parallel TURBOMOLE for Density    
              Functional Calculations                          
              M. v. Arnim and R. Ahlrichs                      
              J. Comp. Chem. 19: 1746 (1998)                   
          RI-J Method:                                     
              Auxiliary Basis Sets to approximate Coulomb      
              Potentials                                       
              Chem. Phys. Lett. 240: 283 (1995)                
              K. Eichkorn, O. Treutler, H. Oehm, M. Haeser     
              and R. Ahlrichs                                  
              Chem. Phys. Lett. 242: 652 (1995)                
                                                           
              Auxiliary Basis Sets for Main Row Atoms and their
              Use to approximate Coulomb Potentials            
              K. Eichkorn, F. Weigend, O. Treutler and         
              R. Ahlrichs                                      
              Theo. Chem. Acc. 97: 119 (1997)                   
                                                           
              Accurate Coulomb-fitting basis sets for H to Rn 
              F. Weigend                                        
              Phys. Chem. Chem. Phys. 8: 1057 (2006)            
                                                           
          Multipole accelerated RI-J (MARI-J):             
              Fast evaluation of the Coulomb potential for     
              electron densities using multipole accelerated   
              resolution of identity approximation             
              M. Sierka, A. Hogekamp and R. Ahlrichs           
              J. Chem. Phys. 118: 9136 (2003)                  
          RI-JK Method:                                     
              A fully direct RI-HF algorithm: Implementation,
              optimised auxiliary basis sets, demonstration of
              accuracy and efficiency                         
              F. Weigend                                      
              Phys. Chem. Chem. Phys. 4: 4285 (2002)           
          Two-component HF and DFT with spin-orbit coupling:  
              Self-consistent treatment of spin-orbit         
              interactions with efficient Hartree-Fock and    
              density functional methods                      
              M. K. Armbruster, F. Weigend, C. van Wüllen and 
              W. Klopper                                      
              Phys. Chem. Chem. Phys. 10: 1748 (2008)         
          Two-component difference density and DIIS algorithm 
              Efficient two-component self-consistent field   
              procedures and gradients: implementation in     
              TURBOMOLE and application to Au20-              
              A. Baldes, F. Weigend                           
              Mol. Phys. 111: 2617 (2013)                     
          Relativistic all-electron 2c calculations           
              An efficient implementation of two-component    
              relativistic exact-decoupling methods for large 
              molecules                                       
              D. Peng, N. Middendorf, F. Weigend, M. Reiher   
              J. Chem. Phys. 138: 184105 (2013)               
          Finite nucleus model and SNSO approximation         
              Efficient implementation of one- and two-       
              component analytical energy gradients in exact  
              two-component theory                            
              Y. J. Franzke, N. Middendorf, F. Weigend        
              J. Chem. Phys. 148: 104110 (2018)               
                                         




              +--------------------------------------------------+
              |      general information about current run       |
              +--------------------------------------------------+

 
 PBE functional
 exchange:    LDA + PBE
 correlation: LDA (PW) + PBE
 A DFT calculation using the RI-J approximation will be carried out.
 Allocatable memory for RI due to $ricore (MB):                  8000


              +--------------------------------------------------+
              | Atomic coordinate, charge and isotop information |
              +--------------------------------------------------+

                    atomic coordinates            atom    charge  isotop
         -0.10479206   -1.79144318    0.01891668    n      7.000     0
         -0.10831172   -3.69954198    0.10403484    h      1.000     0
         -2.48302399   -0.63333223   -0.12205027    c      6.000     0
         -4.40097685   -1.90465661   -0.23263045    o      8.000     0
         -2.35905620    2.10903246   -0.12568305    c      6.000     0
         -4.09002757    3.16592051   -0.27798333    h      1.000     0
         -0.10030686    3.27192377    0.06461996    c      6.000     0
          0.09091575    5.30338385    0.08205130    h      1.000     0
          2.10879506    1.94186570    0.25543226    n      7.000     0
          3.77313142    2.82944869    0.49439070    h      1.000     0
          2.22108394   -0.66859398    0.33290579    c      6.000     0
          4.18504694   -1.82635496    0.63338423    o      8.000     0
 
       center of nuclear mass  :   -0.07501397   -0.00832738    0.11115685
       center of nuclear charge:   -0.07519878    0.05652166    0.11082278

              +--------------------------------------------------+
              |               basis set information              |
              +--------------------------------------------------+

              we will work with the 1s 3p 5d 7f 9g ... basis set
              ...i.e. with spherical basis functions...

   type   atoms  prim   cont   basis
   ---------------------------------------------------------------------------
    n        2     77     57   def2-QZVP   [7s4p3d2f1g|15s8p3d2f1g]
    h        4     33     30   def2-QZVP   [4s3p2d1f|7s3p2d1f]
    c        4     77     57   def2-QZVP   [7s4p3d2f1g|15s8p3d2f1g]
    o        2     77     57   def2-QZVP   [7s4p3d2f1g|15s8p3d2f1g]
   ---------------------------------------------------------------------------
   total:   12    748    576
   ---------------------------------------------------------------------------

   total number of primitive shells          :  100
   total number of contracted shells         :  176
   total number of cartesian basis functions :  716
   total number of SCF-basis functions       :  576


 integral neglect threshold       :  0.47E-11
 integral storage threshold THIZE :  0.10E-04
 integral storage threshold THIME :         5

 RI-J AUXILIARY BASIS SET information:

              we will work with the 1s 3p 5d 7f 9g ... basis set
              ...i.e. with spherical basis functions...

   type   atoms  prim   cont   basis
   ---------------------------------------------------------------------------
    n        2     70     49   def2-QZVP   [6s4p3d1f1g|12s5p4d2f1g]
    h        4     16     11   def2-QZVP   [3s1p1d|5s2p1d]
    c        4     70     49   def2-QZVP   [6s4p3d1f1g|12s5p4d2f1g]
    o        2     70     49   def2-QZVP   [6s4p3d1f1g|12s5p4d2f1g]
   ---------------------------------------------------------------------------
   total:   12    624    436
   ---------------------------------------------------------------------------

   total number of primitive shells          :   80
   total number of contracted shells         :  140
   total number of cartesian basis functions :  536
   total number of SCF-basis functions       :  436


 symmetry group of the molecule :   c1 

 the group has the following generators :
   c1(z)

    1 symmetry operations found

 there are 1 real representations :   a   

 maximum number of shells which are related by symmetry :  1


    mo occupation :
   irrep   mo's   occupied
    a      576       29
 
 number of basis functions   :                    576
 number of occupied orbitals :                     29
 
  
           ------------------
           density functional
           ------------------
 PBE functional
 exchange:    LDA + PBE
 correlation: LDA (PW) + PBE

 iterations will be done with small grid
  
 spherical integration : Lebedev's spherical grid
 spherical gridsize    :                     4
    i.e. gridpoints    :                   434
 value for diffuse not defined
 radial integration    : Chebyshev 2nd kind (scaling 3)
 radial gridsize       :                     6
 integration cells     :                    12
 partition function    : becke
 partition sharpness   :                     3
  

 biggest AO integral is expected to be     6.990327543
  
           ------------------------
               RI-J - INFORMATION
           ------------------------
 Contributions to RI integral batches: 
  neglected integral batches:                  2414
  direct contribution:                            0
  memory contribution:                 13162
 Memory core needed for (P|Q) and Cholesky      2 MByte
 Memory core minimum needed except of (P|Q)     2 MByte
 Total minimum memory core needed (sum)         4 MByte
  
 ****************************************
 Memory allocated for RI-J   921 MByte
 ****************************************
                                            

          ------------------------
          nuclear repulsion energy  :   357.249950397    
          ------------------------

   .------------------------------.
   |            DFT-D4            |
   |          ==========          |
   |  E. Caldeweyher,  S. Grimme  |
   |   University of Bonn, MCTC   |
   |     02/2018, Version 1.0     |
   '------------------------------'
  This code comes without any warranty

 Cite this work as:
   E. Caldeweyher, C. Bannwarth, and S. Grimme,
   J. Chem. Phys., 2017, 147, 034112.
   E. Caldeweyher, S. Ehlert, and S. Grimme,
   J. Chem. Phys., in preparation.

 Contributions:
   P. Shushkov - GBSA(H2O)
   S. Ehlert   - MBD, DFA fit

number of atoms            :    12
number of electrons        :    42
charge                     :  0
spin                       : 0.0
 Found param_gfn2.xtb file !
========================================================================
    G F N  parametrization, version 3
   Geometries Frequencies Non-covalent interactions
 /sopt/TURBOMOLE/7.3-official/parameter/param_gfn2.xtb
========================================================================
 method parameters:
------------------------------------------------------------------------
k(s)        :               1.8500
k(p)        :               2.2300
k(d)        :               2.2300
k(f)        :               2.0000
kEN (H0ij)  :              -2.0000
D3 a1       :               0.5200
D3 a2       :               5.0000
D3 s8       :               2.7000
D3atm       :               5.0000
alphaj      :               2.0000
AESdamp     :               4.0000
AESrad      :               3.0000
expscalexp  :               5.0000
------------------------------------------------------------------------
------------------------------------------------------------------------
 xTB basis
------------------------------------------------------------------------
  Z AO/shell   Hii/eV     exponent
  1     Wed Apr 25 08:07:45 CEST 2018   EN: 2.200 GM2: 0.406  GM3: 0.0800  RAES: 1.40
     1s    -10.707211    1.230000
  6     Wed Apr 25 08:07:45 CEST 2018   EN: 2.550 GM2: 0.538  GM3: 0.1500  RAES: 3.00
     2s    -13.970922    2.096432
     2p    -10.063292    1.800000
  7     Wed Apr 25 08:07:45 CEST 2018   EN: 3.040 GM2: 0.461  GM3:-0.0640  RAES: 1.90
     2s    -16.686243    2.339881
     2p    -12.523956    2.014332
  8     Wed Apr 25 08:07:45 CEST 2018   EN: 3.440 GM2: 0.452  GM3:-0.0517  RAES: 1.80
     2s    -20.229985    2.439742
     2p    -15.503117    2.137023
------------------------------------------------------------------------
 DFT-D4 reference setup
------------------------------------------------------------------------
 N      q(ref)        CN(ref)   cov. CN(ref)  alpha(AIM,ref)
     0.0000000      0.0000000      0.0000000      7.5385089
    -0.1797353      0.9622367      0.8575417      8.1244983
    -0.1525504      2.0397432      1.8555113      7.4399298
    -0.4289141      2.9186070      2.5786982      8.2914891
     0.0000000      0.9992288      0.9808497      5.8062716
 H      q(ref)        CN(ref)   cov. CN(ref)  alpha(AIM,ref)
     0.0000000      0.0000000      0.0000000      5.0540161
     0.0000000      0.8115055      0.8943405      2.7207580
 C      q(ref)        CN(ref)   cov. CN(ref)  alpha(AIM,ref)
     0.0000000      0.0000000      0.0000000     12.3555336
    -0.1299310      0.9367838      0.9179641     12.6203061
    -0.0788263      1.9884028      1.9096951      9.3103249
    -0.0767301      2.9881158      2.8401678      8.8356702
    -0.0945886      3.9165802      3.7567914      6.6924619
    -0.0285648      3.3673832      3.0308559      8.9184424
     0.0506204      0.9979550      0.8555886      7.7402501
 O      q(ref)        CN(ref)   cov. CN(ref)  alpha(AIM,ref)
     0.0000000      0.0000000      0.0000000      5.1967092
    -0.3306800      0.9547795      0.8033980      6.0646315
    -0.5637321      1.9239773      1.6098510      6.6505011
     0.0000000      0.9835639      0.9794547      5.1987934
 no old-style atom pair restraing (fixing) potential
------------------------------------------------------------------------
 SCC calculation
------------------------------------------------------------------------

------------------------------------------------------------------------
 Dispersion Energy Calculation
 * damping parameters for pbe-D4
 s6       :    1.0000
 s8       :    0.9516
 a1       :    0.4044
 a2       :    4.6501
========================================================================
 Edisp  /kcal,au:    -7.6601  -0.01220718
------------------------------------------------------------------------
 E(2)   /kcal,au:    -7.6583  -0.01220422
 Emany  /kcal,au:    -0.0019  -0.00000297
 Eresp  /kcal,au:     0.0000   0.00000000
========================================================================
 nuclear repulsion energy                  =     357.249950397
 empirical dispersive energy correction    =      -0.012207181
 nuclear repulsion + dispersion correction =     357.237743216


         -----------------
         -S,T+V- integrals
         -----------------

 1e-integrals will be neglected if expon. factor < 0.466754E-12
 Difference densities >>NOT<< switched on in parallel ridft!

 DIIS switched on: error vector is FDS-SDF
 Max. Iterations for DIIS is     :   4
 DIIS matrix (see manual) 
    Scaling factor of diagonals  :  1.200
    threshold for scaling factor :  0.000

 scf convergence criterion : increment of total energy < .1000000D-06
                  and increment of one-electron energy < .1000000D-03

  MOs are in ASCII format !


 automatic virtual orbital shift switched on 
      shift if e(lumo)-e(homo) < 0.10000000    


 reading orbital data $scfmo  from file mos
 orbital characterization : expanded
 mo provided and orthogonalized by Cholesky decomposition

 DSCF restart information will be dumped onto file mos


 Starting SCF iterations

          Overall gridpoints after grid construction =         35832

 ITERATION  ENERGY          1e-ENERGY        2e-ENERGY     NORM[dD(SAO)]  TOL
   1  -412.62026869681    -1261.9080770     492.05006508    0.000D+00 0.466D-11
                            Exc = -53.5677762755     Coul =  545.617841360    
                              N = 58.000086651    
                            current damping = 0.700
 
          max. resid. norm for Fia-block=  8.091D-01 for orbital     10a         
          max. resid. fock norm         =  7.332D+01 for orbital    494a         

 ITERATION  ENERGY          1e-ENERGY        2e-ENERGY     NORM[dD(SAO)]  TOL
   2  -414.28868934879    -1268.7998597     497.27342718    0.000D+00 0.466D-11
                            Exc = -53.5549639565     Coul =  550.828391134    
                              N = 58.000095904    
                            current damping = 0.650
 
          Norm of current diis error:  3.3379    
          max. resid. norm for Fia-block=  1.640D-01 for orbital      1a         
          max. resid. fock norm         =  3.468D-01 for orbital    336a         

 ITERATION  ENERGY          1e-ENERGY        2e-ENERGY     NORM[dD(SAO)]  TOL
   3  -414.49500579336    -1271.3815189     499.64876986    0.000D+00 0.466D-11
                            Exc = -53.8198508720     Coul =  553.468620728    
                              N = 58.000090972    
                            current damping = 0.550
 
          Norm of current diis error:  1.5853    
          max. resid. norm for Fia-block=  6.619D-02 for orbital      1a         
          max. resid. fock norm         =  7.974D-02 for orbital    486a         

 ITERATION  ENERGY          1e-ENERGY        2e-ENERGY     NORM[dD(SAO)]  TOL
   4  -414.55462758172    -1271.6250553     499.83268449    0.000D+00 0.466D-11
                            Exc = -53.7191259708     Coul =  553.551810461    
                              N = 58.000090825    
                            current damping = 0.400
 
          Norm of current diis error: 0.74956    
          max. resid. norm for Fia-block=  3.278D-02 for orbital     10a         
          max. resid. fock norm         =  7.317D-02 for orbital    523a         

 ITERATION  ENERGY          1e-ENERGY        2e-ENERGY     NORM[dD(SAO)]  TOL
   5  -414.56422147797    -1271.8683853     500.06642063    0.000D+00 0.466D-11
                            Exc = -53.8196188625     Coul =  553.886039495    
                              N = 58.000093096    
                            current damping = 0.250
 
          Norm of current diis error: 0.48498    
          max. resid. norm for Fia-block=  1.078D-02 for orbital     26a         
          max. resid. fock norm         =  1.281D-02 for orbital    491a         
          mo-orthogonalization: Cholesky decomposition

 ITERATION  ENERGY          1e-ENERGY        2e-ENERGY     NORM[dD(SAO)]  TOL
   6  -414.57052897336    -1272.2521539     500.44388169    0.000D+00 0.466D-11
                            Exc = -53.8132315606     Coul =  554.257113254    
                              N = 58.000092570    
                            current damping = 0.100
 
          Norm of current diis error: 0.12391    
          max. resid. norm for Fia-block=  4.215D-03 for orbital     26a         
          max. resid. fock norm         =  7.211D-03 for orbital    537a         

 ITERATION  ENERGY          1e-ENERGY        2e-ENERGY     NORM[dD(SAO)]  TOL
   7  -414.57053359878    -1271.9465578     500.13828100    0.000D+00 0.466D-11
                            Exc = -53.7862379334     Coul =  553.924518936    
                              N = 58.000092372    
                            current damping = 0.150
 
          Norm of current diis error: 0.11911    
          max. resid. norm for Fia-block=  2.713D-03 for orbital     28a         
          max. resid. fock norm         =  5.445D-03 for orbital    572a         

 ITERATION  ENERGY          1e-ENERGY        2e-ENERGY     NORM[dD(SAO)]  TOL
   8  -414.57086367396    -1272.0398014     500.23119449    0.000D+00 0.466D-11
                            Exc = -53.7994509080     Coul =  554.030645394    
                              N = 58.000092476    
                            current damping = 0.200
 
          Norm of current diis error: 0.37930E-01
          max. resid. norm for Fia-block=  1.354D-03 for orbital     29a         
          max. resid. fock norm         =  2.679D-03 for orbital    552a         

 ITERATION  ENERGY          1e-ENERGY        2e-ENERGY     NORM[dD(SAO)]  TOL
   9  -414.57087357424    -1272.1122315     500.30361476    0.000D+00 0.466D-11
                            Exc = -53.8063158963     Coul =  554.109930656    
                              N = 58.000092607    
                            current damping = 0.050
 
          Norm of current diis error: 0.31678E-01
          max. resid. norm for Fia-block=  9.008D-04 for orbital     29a         
          max. resid. fock norm         =  1.413D-03 for orbital    544a         

 ITERATION  ENERGY          1e-ENERGY        2e-ENERGY     NORM[dD(SAO)]  TOL
  10  -414.57089836221    -1272.0919854     500.28334384    0.000D+00 0.466D-11
                            Exc = -53.8016021970     Coul =  554.084946040    
                              N = 58.000092640    
                            current damping = 0.100
 
          Norm of current diis error: 0.15453E-01
          max. resid. norm for Fia-block=  3.234D-04 for orbital     29a         
          max. resid. fock norm         =  5.137D-04 for orbital     23a         
          mo-orthogonalization: Cholesky decomposition

 ITERATION  ENERGY          1e-ENERGY        2e-ENERGY     NORM[dD(SAO)]  TOL
  11  -414.57090453040    -1272.0815563     500.27290859    0.000D+00 0.466D-11
                            Exc = -53.8024892081     Coul =  554.075397803    
                              N = 58.000092539    
                            current damping = 0.050
 
          Norm of current diis error: 0.38113E-02
          max. resid. norm for Fia-block=  7.980D-05 for orbital     24a         
          max. resid. fock norm         =  1.186D-04 for orbital     23a         

 ITERATION  ENERGY          1e-ENERGY        2e-ENERGY     NORM[dD(SAO)]  TOL
  12  -414.57090482241    -1272.0872192     500.27857119    0.000D+00 0.466D-11
                            Exc = -53.8025356547     Coul =  554.081106847    
                              N = 58.000092597    
                            current damping = 0.100
 
          Norm of current diis error: 0.16479E-02
          max. resid. norm for Fia-block=  4.566D-05 for orbital     25a         
          max. resid. fock norm         =  8.870D-05 for orbital    574a         

 ITERATION  ENERGY          1e-ENERGY        2e-ENERGY     NORM[dD(SAO)]  TOL
  13  -414.57090484683    -1272.0854906     500.27684249    0.000D+00 0.466D-11
                            Exc = -53.8024276986     Coul =  554.079270194    
                              N = 58.000092572    
                            current damping = 0.150
 
          Norm of current diis error: 0.11713E-02
          max. resid. norm for Fia-block=  2.935D-05 for orbital     27a         
          max. resid. fock norm         =  5.042D-05 for orbital    552a         

 ITERATION  ENERGY          1e-ENERGY        2e-ENERGY     NORM[dD(SAO)]  TOL
  14  -414.57090487498    -1272.0850237     500.27637560    0.000D+00 0.466D-11
                            Exc = -53.8024381988     Coul =  554.078813800    
                              N = 58.000092574    
                            current damping = 0.050
 
          Norm of current diis error: 0.46201E-03
          max. resid. norm for Fia-block=  1.636D-05 for orbital     29a         
          max. resid. fock norm         =  3.676D-05 for orbital    520a         

 ITERATION  ENERGY          1e-ENERGY        2e-ENERGY     NORM[dD(SAO)]  TOL
  15  -414.57090487763    -1272.0854720     500.27682391    0.000D+00 0.466D-11
                            Exc = -53.8024691131     Coul =  554.079293025    
                              N = 58.000092576    
                            current damping = 0.100
 
          Norm of current diis error: 0.35277E-03
          max. resid. norm for Fia-block=  7.977D-06 for orbital     29a         
          max. resid. fock norm         =  1.873D-05 for orbital    553a         
          mo-orthogonalization: Cholesky decomposition

 ENERGY CONVERGED !

          Overall gridpoints after grid construction =        125006

 ITERATION  ENERGY          1e-ENERGY        2e-ENERGY     NORM[dD(SAO)]  TOL
  16  -414.57078410429    -1272.0854886     500.27696131    0.000D+00 0.466D-11
                            Exc = -53.8023457022     Coul =  554.079307012    
                              N = 57.999989203    
                            current damping = 0.050
 
          Norm of current diis error: 0.93600E-04
          max. resid. norm for Fia-block=  2.970D-06 for orbital     28a         
          max. resid. fock norm         =  5.907D-06 for orbital    572a         

 End of SCF iterations

   convergence criteria satisfied after    16 iterations


                  ------------------------------------------ 
                 |  total energy      =   -414.57078410429  |
                  ------------------------------------------ 
                 :  kinetic energy    =    413.07806378079  :
                 :  potential energy  =   -827.64884788508  :
                 :  virial theorem    =      1.99639935958  :
                 :  wavefunction norm =      1.00000000000  :
                  .......................................... 


 <geterg> : there is no data group $energy 


 <skperg> : $end is missing 


 orbitals $scfmo  will be written to file mos

    irrep                 25a         26a         27a         28a         29a   
 eigenvalues H         -0.34167    -0.26291    -0.25853    -0.23456    -0.22894
            eV          -9.2973     -7.1541     -7.0350     -6.3827     -6.2299
 occupation              2.0000      2.0000      2.0000      2.0000      2.0000 

    irrep                 30a         31a         32a         33a         34a   
 eigenvalues H         -0.08720    -0.03960    -0.02483     0.01564     0.02115
            eV          -2.3729     -1.0775     -0.6758      0.4255      0.5755
 
 
 
 
 ==============================================================================
                           electrostatic moments
 ==============================================================================

 reference point for electrostatic moments:    0.00000   0.00000   0.00000

 
              nuc           elec       ->  total
 ------------------------------------------------------------------------------
                          charge      
 ------------------------------------------------------------------------------
          58.000000     -58.000000      -0.000000
 
 ------------------------------------------------------------------------------
                       dipole moment  
 ------------------------------------------------------------------------------
   x      -4.361529       4.872389       0.510860
   y       3.278256      -1.645686       1.632570
   z       6.427721      -6.413606       0.014115
 
   | dipole moment | =     1.7107 a.u. =     4.3481 debye 
 
 ------------------------------------------------------------------------------
                     quadrupole moment
 ------------------------------------------------------------------------------
  xx     457.299528    -500.155290     -42.855762
  yy     260.418199    -288.925056     -28.506856
  zz       5.314984     -39.765597     -34.450613
  xy       3.205192      -1.801862       1.403330
  xz      44.146470     -44.918820      -0.772351
  yz      -3.099200       3.563941       0.464740
 
     1/3  trace=     -35.271077
     anisotropy=      12.817116
 
 ==============================================================================
 


    ------------------------------------------------------------------------
         total  cpu-time :  3 minutes and 51 seconds
         total wall-time :  52.91 seconds
    ------------------------------------------------------------------------

   ****  ridft : all done  ****


    2019-03-12 12:20:36.550 

