
   OpenMP run-time library returned nthreads = 28
 operating system is UNIX !

 dscf (c-15-42) : TURBOMOLE V7.3 ( 22142 ) 4 Jul 2018 at 18:12:42
 Copyright (C) 2018 TURBOMOLE GmbH, Karlsruhe


    2019-04-01 23:08:44.867 



                             d s c f - program

                   idea & directorship : reinhart ahlrichs
                   program development : marco haeser
                                         michael baer
                           dft version : oliver treutler


                          quantum chemistry group
                          universitaet  karlsruhe
                                  germany




                          References             
                                                 
          TURBOMOLE:                             
              R. Ahlrichs, M. Baer, M. Haeser, H. Horn, and
              C. Koelmel
              Electronic structure calculations on workstation
              computers: the program system TURBOMOLE
              Chem. Phys. Lett. 162: 165 (1989)
          Density Functional:                              
              O. Treutler and R. Ahlrichs                      
              Efficient Molecular Numerical Integration Schemes
              J. Chem. Phys. 102: 346 (1995)                   
          Parallel Version:                                
              Performance of parallel TURBOMOLE for Density    
              Functional Calculations                          
              M. v. Arnim and R. Ahlrichs                      
              J. Comp. Chem. 19: 1746 (1998)                   
                                         




              +--------------------------------------------------+
              | Atomic coordinate, charge and isotop information |
              +--------------------------------------------------+

                    atomic coordinates            atom    charge  isotop
         -4.78622267   -0.74390812    7.83356202    c      6.000     0
         -4.84195720   -1.90234951    6.13055996    h      1.000     0
         -4.85450594   -2.01800044    9.45044385    h      1.000     0
         -6.48918973    0.41074560    7.86615213    h      1.000     0
         -2.40245318    0.86741490    7.90124811    c      6.000     0
         -2.40322015    2.03922193    9.60085635    h      1.000     0
         -2.38660150    2.16548350    6.29675646    h      1.000     0
         -0.00009298   -0.71533953    7.85033283    c      6.000     0
         -0.00038410   -2.01296289    9.46006205    h      1.000     0
          0.00017360   -1.90128977    6.15592408    h      1.000     0
          2.40216544    0.86746943    7.90211990    c      6.000     0
          2.40268134    2.03874201    9.60190099    h      1.000     0
          2.38667947    2.16585236    6.29791697    h      1.000     0
          4.78596308   -0.74394636    7.83442200    c      6.000     0
          4.84194333   -1.90207730    6.13119450    h      1.000     0
          6.48894290    0.41055568    7.86763968    h      1.000     0
          4.85383895   -2.01848364    9.45109350    h      1.000     0
 
       center of nuclear mass  :   -0.00012893   -0.11322888    7.86347720
       center of nuclear charge:   -0.00012954   -0.12701001    7.86287166

              +--------------------------------------------------+
              |               basis set information              |
              +--------------------------------------------------+

              we will work with the 1s 3p 5d 7f 9g ... basis set
              ...i.e. with spherical basis functions...

   type   atoms  prim   cont   basis
   ---------------------------------------------------------------------------
    c        5     50     30   cc-pVTZ   [4s3p2d1f|18s5p2d1f]
    h       12     16     14   cc-pVTZ   [3s2p1d|5s2p1d]
   ---------------------------------------------------------------------------
   total:   17    442    318
   ---------------------------------------------------------------------------

   total number of primitive shells          :   34
   total number of contracted shells         :  122
   total number of cartesian basis functions :  355
   total number of SCF-basis functions       :  318


 integral neglect threshold       :  0.94E-13
 integral storage threshold THIZE :  0.10E-04
 integral storage threshold THIME :         5


 DENSITY CONVERGENCE CHECK SWITCHED ON !
 SCF CONVERGENCE IF RMS(delta[D]) <     0.1000000000E-06


 symmetry group of the molecule :   c1 

 the group has the following generators :
   c1(z)

    1 symmetry operations found

 there are 1 real representations :   a   

 maximum number of shells which are related by symmetry :  1


    mo occupation :
   irrep   mo's   occupied
    a      318       21
 
 number of basis functions   :                    318
 number of occupied orbitals :                     21
 

 automatic virtual orbital shift switched on 
      shift if e(lumo)-e(homo) < 0.10000000    


          ------------------------
          nuclear repulsion energy  :   185.655948471    
          ------------------------


         -----------------
         -S,T+V- integrals
         -----------------

 1e-integrals will be neglected if expon. factor < 0.941398E-14
 
   Difference densities algorithm switched on.
   The maximal number of linear combinations of
   difference densities is                    20 .

 DIIS switched on: error vector is FDS-SDF
 Max. Iterations for DIIS is     :   5
 DIIS matrix (see manual) 
    Scaling factor of diagonals  :  1.200
    threshold for scaling factor :  0.000

 scf convergence criterion : increment of total energy < .1000000D-08
                  and increment of one-electron energy < .1000000D-05

  MOs are in ASCII format !


 reading orbital data $scfmo  from file mos
 orbital characterization : scfconv=9

 DSCF restart information will be dumped onto file mos

 
                                              current damping :  0.700
 ITERATION  ENERGY          1e-ENERGY        2e-ENERGY     RMS[dD(SAO)]   TOL
   1  -196.35843451026    -631.74795159     249.73356860    0.000D+00 0.939D-13
          max. resid. norm for Fia-block=  8.518D-02 for orbital      5a         
          max. resid. fock norm         =  1.680D-01 for orbital    318a         
          Delta Eig. =    20.8037463298 eV 
 
                                              current damping :  0.650
 ITERATION  ENERGY          1e-ENERGY        2e-ENERGY     RMS[dD(SAO)]   TOL
   2  -196.39391409876    -631.09924280     249.04938023    0.809D-03 0.598D-13
          Norm of current diis error: 0.41881    
          max. resid. norm for Fia-block=  4.163D-02 for orbital      5a         
          max. resid. fock norm         =  5.739D-02 for orbital    314a         
          Delta Eig. =     9.6982726791 eV 
 
                                              current damping :  0.600
 ITERATION  ENERGY          1e-ENERGY        2e-ENERGY     RMS[dD(SAO)]   TOL
   3  -196.40143611057    -631.25273569     249.19535111    0.413D-03 0.452D-13
          Norm of current diis error: 0.18935    
          max. resid. norm for Fia-block=  1.699D-02 for orbital      5a         
          max. resid. fock norm         =  2.530D-02 for orbital    314a         
          Delta Eig. =     3.6999606328 eV 
 
                                              current damping :  0.650
 ITERATION  ENERGY          1e-ENERGY        2e-ENERGY     RMS[dD(SAO)]   TOL
   4  -196.40303837414    -631.19242571     249.13343886    0.182D-03 0.399D-13
          Norm of current diis error: 0.76915E-01
          max. resid. norm for Fia-block=  6.415D-03 for orbital      3a         
          max. resid. fock norm         =  9.094D-03 for orbital    318a         
          Delta Eig. =     1.3652703588 eV 
 
                                              current damping :  0.500
 ITERATION  ENERGY          1e-ENERGY        2e-ENERGY     RMS[dD(SAO)]   TOL
   5  -196.40329839220    -631.18087015     249.12162328    0.719D-04 0.368D-13
          Norm of current diis error: 0.32739E-01
          max. resid. norm for Fia-block=  2.686D-03 for orbital     14a         
          max. resid. fock norm         =  3.606D-03 for orbital    314a         
 mo-orthogonalization: Cholesky decomposition
          Delta Eig. =     0.5899178659 eV 
 
                                              current damping :  0.350
 ITERATION  ENERGY          1e-ENERGY        2e-ENERGY     RMS[dD(SAO)]   TOL
   6  -196.40334853606    -631.17457451     249.11527750    0.329D-04 0.339D-13
          Norm of current diis error: 0.12136E-01
          max. resid. norm for Fia-block=  9.898D-04 for orbital     14a         
          max. resid. fock norm         =  1.202D-03 for orbital    314a         
          Delta Eig. =     0.2180400695 eV 
 
                                              current damping :  0.200
 ITERATION  ENERGY          1e-ENERGY        2e-ENERGY     RMS[dD(SAO)]   TOL
   7  -196.40335597650    -631.17161081     249.11230636    0.134D-04 0.312D-13
          Norm of current diis error: 0.37160E-02
          max. resid. norm for Fia-block=  3.005D-04 for orbital     14a         
          max. resid. fock norm         =  3.036D-04 for orbital    314a         
          Delta Eig. =     0.0645666375 eV 
 
                                              current damping :  0.050
 ITERATION  ENERGY          1e-ENERGY        2e-ENERGY     RMS[dD(SAO)]   TOL
   8  -196.40335675194    -631.17075482     249.11144959    0.470D-05 0.290D-13
          Norm of current diis error: 0.87940E-03
          max. resid. norm for Fia-block=  6.873D-05 for orbital     14a         
          max. resid. fock norm         =  6.923D-05 for orbital     14a         
          Delta Eig. =     0.0120277424 eV 
 
                                              current damping :  0.050
 ITERATION  ENERGY          1e-ENERGY        2e-ENERGY     RMS[dD(SAO)]   TOL
   9  -196.40335680435    -631.17029535     249.11099007    0.147D-05 0.273D-13
          Norm of current diis error: 0.15356E-03
          max. resid. norm for Fia-block=  1.409D-05 for orbital     19a         
          max. resid. fock norm         =  1.437D-05 for orbital     19a         
          Delta Eig. =     0.0008168640 eV 
 
                                              current damping :  0.050
 ITERATION  ENERGY          1e-ENERGY        2e-ENERGY     RMS[dD(SAO)]   TOL
  10  -196.40335680643    -631.17028213     249.11097686    0.397D-06 0.262D-13
          Norm of current diis error: 0.35523E-04
          max. resid. norm for Fia-block=  3.871D-06 for orbital     19a         
          max. resid. fock norm         =  3.897D-06 for orbital     19a         
 mo-orthogonalization: Cholesky decomposition
          Delta Eig. =     0.0000583298 eV 
 
                                              current damping :  0.050
 ITERATION  ENERGY          1e-ENERGY        2e-ENERGY     RMS[dD(SAO)]   TOL
  11  -196.40335680656    -631.17023274     249.11092747    0.121D-06 0.256D-13
          Norm of current diis error: 0.92079E-05
          max. resid. norm for Fia-block=  8.545D-07 for orbital     19a         
          max. resid. fock norm         =  9.304D-07 for orbital     21a         
          Delta Eig. =     0.0000578887 eV 

 DENSITY CONVERGED !

 
                                              current damping :  0.100
 ITERATION  ENERGY          1e-ENERGY        2e-ENERGY     RMS[dD(SAO)]   TOL
  12  -196.40335680657    -631.17024640     249.11094112    0.276D-07 0.252D-13
          Norm of current diis error: 0.24513E-05
          max. resid. norm for Fia-block=  2.071D-07 for orbital     19a         
          max. resid. fock norm         =  2.488D-07 for orbital     19a         
          Delta Eig. =     0.0000183655 eV 

 ENERGY & DENSITY CONVERGED !

 
                                              current damping :  0.150
 ITERATION  ENERGY          1e-ENERGY        2e-ENERGY     RMS[dD(SAO)]   TOL
  13  -196.40335680656    -631.17024109     249.11093581    0.567D-08 0.268D-13
          max. resid. norm for Fia-block=  6.529D-08 for orbital     21a         
          max. resid. fock norm         =  7.043D-08 for orbital     21a         

 convergence criteria satisfied after    13 iterations


                  ------------------------------------------ 
                 |  total energy      =   -196.40335680656  |
                  ------------------------------------------ 
                 :  kinetic energy    =    196.24506883712  :
                 :  potential energy  =   -392.64842564368  :
                 :  virial theorem    =      1.99919406688  :
                 :  wavefunction norm =      1.00000000000  :
                  .......................................... 


 orbitals $scfmo  will be written to file mos

    irrep                 17a         18a         19a         20a         21a   
 eigenvalues H         -0.49471    -0.47594    -0.46198    -0.45916    -0.44667
            eV         -13.4618    -12.9510    -12.5713    -12.4944    -12.1547
 occupation              2.0000      2.0000      2.0000      2.0000      2.0000 

    irrep                 22a         23a         24a         25a         26a   
 eigenvalues H          0.14256     0.15469     0.17050     0.17400     0.19502
            eV           3.8792      4.2094      4.6396      4.7347      5.3068
 
 
 
 
 ==============================================================================
                           electrostatic moments
 ==============================================================================

 reference point for electrostatic moments:    0.00000   0.00000   0.00000

 
              nuc           elec       ->  total
 ------------------------------------------------------------------------------
                          charge      
 ------------------------------------------------------------------------------
          42.000000     -42.000000      -0.000000
 
 ------------------------------------------------------------------------------
                       dipole moment  
 ------------------------------------------------------------------------------
   x      -0.005441       0.005442       0.000001
   y      -5.334420       5.366266       0.031846
   z     330.240610    -330.238814       0.001795
 
   | dipole moment | =     0.0319 a.u. =     0.0811 debye 
 
 ------------------------------------------------------------------------------
                     quadrupole moment
 ------------------------------------------------------------------------------
  xx     545.304660    -572.468354     -27.163695
  yy      59.823622     -86.439666     -26.616044
  zz    2624.122343   -2649.849652     -25.727309
  xy      -0.002000       0.002244       0.000244
  xz       0.012620      -0.012723      -0.000103
  yz     -40.706167      40.920935       0.214769
 
     1/3  trace=     -26.502349
     anisotropy=       1.309528
 
 ==============================================================================
 


    ------------------------------------------------------------------------
         total  cpu-time : 13 minutes and 37 seconds
         total wall-time :  59.01 seconds
    ------------------------------------------------------------------------

   ****  dscf : all done  ****


    2019-04-01 23:09:43.818 

