
   OpenMP run-time library returned nthreads = 28
 operating system is UNIX !

 dscf (c-19-412) : TURBOMOLE V7.3 ( 22142 ) 4 Jul 2018 at 18:12:42
 Copyright (C) 2018 TURBOMOLE GmbH, Karlsruhe


    2019-03-24 09:07:39.036 



                             d s c f - program

                   idea & directorship : reinhart ahlrichs
                   program development : marco haeser
                                         michael baer
                           dft version : oliver treutler


                          quantum chemistry group
                          universitaet  karlsruhe
                                  germany




                          References             
                                                 
          TURBOMOLE:                             
              R. Ahlrichs, M. Baer, M. Haeser, H. Horn, and
              C. Koelmel
              Electronic structure calculations on workstation
              computers: the program system TURBOMOLE
              Chem. Phys. Lett. 162: 165 (1989)
          Density Functional:                              
              O. Treutler and R. Ahlrichs                      
              Efficient Molecular Numerical Integration Schemes
              J. Chem. Phys. 102: 346 (1995)                   
          Parallel Version:                                
              Performance of parallel TURBOMOLE for Density    
              Functional Calculations                          
              M. v. Arnim and R. Ahlrichs                      
              J. Comp. Chem. 19: 1746 (1998)                   
                                         




              +--------------------------------------------------+
              | Atomic coordinate, charge and isotop information |
              +--------------------------------------------------+

                    atomic coordinates            atom    charge  isotop
         -4.21408928   -0.28723837    4.89628041    c      6.000     0
         -1.79523983   -1.39650761    4.99454617    c      6.000     0
          0.24755412    0.28912810    5.03989960    c      6.000     0
         -2.26011245    3.62260500    4.98698726    c      6.000     0
          1.49477337   -3.70764267    4.95864137    c      6.000     0
         -4.39928244    2.25255355    4.90194959    n      7.000     0
          0.14172946    2.81947139    5.05312768    n      7.000     0
         -0.98265759   -3.88905638    4.94352356    n      7.000     0
          2.35837821   -1.24532952    5.04178932    n      7.000     0
         -6.38349488   -1.67240763    4.84336808    n      7.000     0
         -2.52278439    5.65972977    4.97375918    h      1.000     0
          2.79301522   -5.28367427    4.88305233    h      1.000     0
          4.17440503   -0.66140415    4.90761877    h      1.000     0
         -7.96519565   -0.73321374    4.31802421    h      1.000     0
         -6.25499350   -3.50544198    4.31424476    h      1.000     0
         11.75409655   -2.40373164   -0.19464179    c      6.000     0
         12.01109930    0.16251645   -0.12661165    c      6.000     0
          9.86437041    1.80657818   -0.31180481    c      6.000     0
          7.41339562    0.69163976   -0.57447674    c      6.000     0
          7.14694423   -1.98232271   -0.66329387    c      6.000     0
          9.32390874   -3.57536184   -0.45353427    c      6.000     0
          4.71108725   -3.08214332   -0.90706854    c      6.000     0
          9.01399365   -6.20397089   -0.50077743    c      6.000     0
          6.62537982   -7.32646822   -0.72754456    c      6.000     0
          4.43707696   -5.75043662   -0.94486307    c      6.000     0
          6.28333939  -10.01365878   -0.73699319    c      6.000     0
          3.93440981  -11.06812596   -0.89950964    c      6.000     0
          1.70453297   -9.53744779   -1.06580554    c      6.000     0
          1.98988162   -6.85025723   -1.09415143    c      6.000     0
         -0.17763426   -5.27989482   -1.26233706    c      6.000     0
          0.09637603   -2.60026316   -1.26422678    c      6.000     0
          2.53601247   -1.50233228   -1.12627678    c      6.000     0
          5.24776947    2.26389191   -0.77667744    c      6.000     0
          2.80246386    1.16407130   -1.01856239    c      6.000     0
          0.63305825    2.73443371   -1.15651239    c      6.000     0
         -1.80279873    1.63650283   -1.33414665    c      6.000     0
         -2.07491929   -1.02990074   -1.34926446    c      6.000     0
         -2.62293987   -6.37593597   -1.31902884    c      6.000     0
         -4.79990438   -4.80179410   -1.37005145    c      6.000     0
         -4.52967354   -2.13350080   -1.44375077    c      6.000     0
         -0.72565484  -10.58246634   -1.15840212    c      6.000     0
         -2.89317071   -9.06312653   -1.26044733    c      6.000     0
         -7.27166616   -5.89972499   -1.38894871    c      6.000     0
         -9.39193888   -4.31424476   -1.43241241    c      6.000     0
         -9.16517174   -1.67618708   -1.46642748    c      6.000     0
         -6.70285859   -0.56124866   -1.45130967    c      6.000     0
         -3.98732214    3.21064470   -1.35115419    c      6.000     0
         -6.43073803    2.11082409   -1.44186104    c      6.000     0
         -5.39138866  -10.11003481   -1.29257267    c      6.000     0
         -7.48142576   -8.60014363   -1.34737473    c      6.000     0
         -8.61904089    3.69819404   -1.42863296    c      6.000     0
        -11.06056706    2.52845357   -1.46453775    c      6.000     0
        -11.32323899   -0.03779452   -1.47776584    c      6.000     0
         -8.31101553    6.32680309   -1.36627199    c      6.000     0
         -5.91673252    7.44930042   -1.28123432    c      6.000     0
         -3.71709130    5.87704827   -1.27745487    c      6.000     0
         -1.27367541    6.97686888   -1.09415143    c      6.000     0
          0.90328909    5.41028592   -1.04879800    c      6.000     0
          3.34103580    6.50632708   -0.82203087    c      6.000     0
          5.51044140    4.93218521   -0.65195552    c      6.000     0
          7.97086483    6.02822636   -0.40629112    c      6.000     0
         10.08546837    4.44274614   -0.23810549    c      6.000     0
          8.17306552    8.72864501   -0.31936372    c      6.000     0
          3.59803856    9.19351764   -0.69541922    c      6.000     0
          6.08680787   10.23853619   -0.45920345    c      6.000     0
         -0.99588567    9.66405944   -0.98454732    c      6.000     0
          1.42863296   10.70907800   -0.79557470    c      6.000     0
         -5.58036127   10.13649098   -1.18107883    c      6.000     0
         -3.23143169   11.19284789   -1.04312883    c      6.000     0
         13.40760691   -3.61315637   -0.04535343    h      1.000     0
         13.87058982    1.01100348    0.06991987    h      1.000     0
         10.67317320   -7.40772644   -0.34204043    h      1.000     0
          7.94629839  -11.20985542   -0.59526373    h      1.000     0
          3.71331185  -13.11280964   -0.88817128    h      1.000     0
         -0.93919389  -12.62715002   -1.12249732    h      1.000     0
        -11.26843693   -5.15706262   -1.44186104    h      1.000     0
         -5.59169963  -12.15471849   -1.25855760    h      1.000     0
         -9.35981354   -9.43351286   -1.36060282    h      1.000     0
        -12.72163633    3.73976802   -1.47020693    h      1.000     0
        -13.19406786   -0.88817128   -1.49288364    h      1.000     0
         -9.97964371    7.52866891   -1.35871309    h      1.000     0
         11.95062806    5.28556399   -0.04346370    h      1.000     0
         10.04200467    9.56012451   -0.13228083    h      1.000     0
          6.28144967   12.28321986   -0.37983495    h      1.000     0
          1.63461310   12.75376167   -0.70864730    h      1.000     0
         -7.25276890   11.32890817   -1.20753500    h      1.000     0
         -3.01600291   13.23564183   -0.96187060    h      1.000     0
 
       center of nuclear mass  :    0.02271449   -0.00494145    0.00383207
       center of nuclear charge:    0.01770013   -0.00891657    0.01434724

              +--------------------------------------------------+
              |               basis set information              |
              +--------------------------------------------------+

              we will work with the 1s 3p 5d 7f 9g ... basis set
              ...i.e. with spherical basis functions...

   type   atoms  prim   cont   basis
   ---------------------------------------------------------------------------
    c       59     77     55   cc-pVQZ   [5s4p3d2f1g|21s6p3d2f1g]
    n        5     77     55   cc-pVQZ   [5s4p3d2f1g|21s6p3d2f1g]
    h       23     32     30   cc-pVQZ   [4s3p2d1f|6s3p2d1f]
   ---------------------------------------------------------------------------
   total:   87   5664   4210
   ---------------------------------------------------------------------------

   total number of primitive shells          :   78
   total number of contracted shells         : 1190
   total number of cartesian basis functions : 5285
   total number of SCF-basis functions       : 4210


 integral neglect threshold       :  0.63E-14
 integral storage threshold THIZE :  0.10E-04
 integral storage threshold THIME :         5


 DENSITY CONVERGENCE CHECK SWITCHED ON !
 SCF CONVERGENCE IF RMS(delta[D]) <     0.1000000000E-06


 symmetry group of the molecule :   c1 

 the group has the following generators :
   c1(z)

    1 symmetry operations found

 there are 1 real representations :   a   

 maximum number of shells which are related by symmetry :  1


    mo occupation :
   irrep   mo's   occupied
    a     4210      206
 
 number of basis functions   :                   4210
 number of occupied orbitals :                    206
 

 automatic virtual orbital shift switched on 
      shift if e(lumo)-e(homo) < 0.10000000    


          ------------------------
          nuclear repulsion energy  :   9204.83001173    
          ------------------------


         -----------------
         -S,T+V- integrals
         -----------------

 1e-integrals will be neglected if expon. factor < 0.632348E-15
 
   Difference densities algorithm switched on.
   The maximal number of linear combinations of
   difference densities is                    20 .

 DIIS switched on: error vector is FDS-SDF
 Max. Iterations for DIIS is     :   5
 DIIS matrix (see manual) 
    Scaling factor of diagonals  :  1.200
    threshold for scaling factor :  0.000

 scf convergence criterion : increment of total energy < .1000000D-08
                  and increment of one-electron energy < .1000000D-05

  MOs are in ASCII format !


 reading orbital data $scfmo  from file mos
 orbital characterization : scfconv=9

 DSCF restart information will be dumped onto file mos

 
                                              current damping :  0.700
 ITERATION  ENERGY          1e-ENERGY        2e-ENERGY     RMS[dD(SAO)]   TOL
   1  -2520.5454205850    -21777.490089     10052.114657    0.000D+00 0.631D-14
          max. resid. norm for Fia-block=  1.106D-01 for orbital      2a         
          max. resid. fock norm         =  2.489D-01 for orbital   4210a         
          Delta Eig. =    26.1434043451 eV 
 
                                              current damping :  0.650
 ITERATION  ENERGY          1e-ENERGY        2e-ENERGY     RMS[dD(SAO)]   TOL
   2  -2521.0057863732    -21767.668052     10041.832253    0.608D-02 0.528D-14
          Norm of current diis error:  1.9142    
          max. resid. norm for Fia-block=  5.133D-02 for orbital      2a         
          max. resid. fock norm         =  9.470D-02 for orbital   4210a         
          Delta Eig. =    11.2051632384 eV 
 
                                              current damping :  0.600
 ITERATION  ENERGY          1e-ENERGY        2e-ENERGY     RMS[dD(SAO)]   TOL
   3  -2521.1007410323    -21768.548756     10042.618004    0.210D-02 0.331D-14
          Norm of current diis error: 0.84661    
          max. resid. norm for Fia-block=  2.158D-02 for orbital      2a         
          max. resid. fock norm         =  3.618D-02 for orbital   4209a         
          Delta Eig. =     4.5524334129 eV 
 
                                              current damping :  0.650
 ITERATION  ENERGY          1e-ENERGY        2e-ENERGY     RMS[dD(SAO)]   TOL
   4  -2521.1209009764    -21767.383705     10041.432792    0.668D-03 0.277D-14
          Norm of current diis error: 0.35194    
          max. resid. norm for Fia-block=  7.951D-03 for orbital      1a         
          max. resid. fock norm         =  1.432D-02 for orbital   4210a         
          Delta Eig. =     1.6610257887 eV 
 
                                              current damping :  0.700
 ITERATION  ENERGY          1e-ENERGY        2e-ENERGY     RMS[dD(SAO)]   TOL
   5  -2521.1246028902    -21767.508814     10041.554200    0.299D-03 0.250D-14
          Norm of current diis error: 0.15488    
          max. resid. norm for Fia-block=  3.623D-03 for orbital    204a         
          max. resid. fock norm         =  5.523D-03 for orbital   4209a         
 mo-orthogonalization: Cholesky decomposition
          Delta Eig. =     0.6619095403 eV 
 
                                              current damping :  0.750
 ITERATION  ENERGY          1e-ENERGY        2e-ENERGY     RMS[dD(SAO)]   TOL
   6  -2521.1254196722    -21767.274195     10041.318763    0.190D-03 0.234D-14
          Norm of current diis error: 0.74578E-01
          max. resid. norm for Fia-block=  1.979D-03 for orbital    202a         
          max. resid. fock norm         =  2.276D-03 for orbital   4210a         
          Delta Eig. =     0.2520411061 eV 
 
                                              current damping :  0.800
 ITERATION  ENERGY          1e-ENERGY        2e-ENERGY     RMS[dD(SAO)]   TOL
   7  -2521.1256489098    -21767.302134     10041.346473    0.925D-04 0.220D-14
          Norm of current diis error: 0.39640E-01
          max. resid. norm for Fia-block=  1.293D-03 for orbital    195a         
          max. resid. fock norm         =  1.591D-03 for orbital    230a         
          Delta Eig. =     0.1128676962 eV 
 
                                              current damping :  0.850
 ITERATION  ENERGY          1e-ENERGY        2e-ENERGY     RMS[dD(SAO)]   TOL
   8  -2521.1257310332    -21767.268961     10041.313218    0.602D-04 0.207D-14
          Norm of current diis error: 0.23381E-01
          max. resid. norm for Fia-block=  9.459D-04 for orbital    195a         
          max. resid. fock norm         =  1.139D-03 for orbital    230a         
          Delta Eig. =     0.0486516930 eV 
 
                                              current damping :  0.900
 ITERATION  ENERGY          1e-ENERGY        2e-ENERGY     RMS[dD(SAO)]   TOL
   9  -2521.1257661908    -21767.272062     10041.316284    0.355D-04 0.195D-14
          Norm of current diis error: 0.14663E-01
          max. resid. norm for Fia-block=  7.396D-04 for orbital    195a         
          max. resid. fock norm         =  8.724D-04 for orbital    230a         
          Delta Eig. =     0.0237444043 eV 
 
                                              current damping :  0.950
 ITERATION  ENERGY          1e-ENERGY        2e-ENERGY     RMS[dD(SAO)]   TOL
  10  -2521.1257825311    -21767.266028     10041.310234    0.242D-04 0.183D-14
          Norm of current diis error: 0.93942E-02
          max. resid. norm for Fia-block=  5.679D-04 for orbital    195a         
          max. resid. fock norm         =  6.498D-04 for orbital    230a         
 mo-orthogonalization: Cholesky decomposition
          Delta Eig. =     0.0116297551 eV 
 
                                              current damping :  1.000
 ITERATION  ENERGY          1e-ENERGY        2e-ENERGY     RMS[dD(SAO)]   TOL
  11  -2521.1257901162    -21767.268046     10041.312244    0.153D-04 0.171D-14
          Norm of current diis error: 0.59446E-02
          max. resid. norm for Fia-block=  4.246D-04 for orbital    195a         
          max. resid. fock norm         =  4.747D-04 for orbital    230a         
          Delta Eig. =     0.0063274389 eV 
 
                                              current damping :  1.050
 ITERATION  ENERGY          1e-ENERGY        2e-ENERGY     RMS[dD(SAO)]   TOL
  12  -2521.1257934358    -21767.266143     10041.310338    0.102D-04 0.161D-14
          Norm of current diis error: 0.36867E-02
          max. resid. norm for Fia-block=  2.989D-04 for orbital    195a         
          max. resid. fock norm         =  3.254D-04 for orbital    230a         
          Delta Eig. =     0.0033148386 eV 
 
                                              current damping :  1.100
 ITERATION  ENERGY          1e-ENERGY        2e-ENERGY     RMS[dD(SAO)]   TOL
  13  -2521.1257947850    -21767.266857     10041.311051    0.611D-05 0.153D-14
          Norm of current diis error: 0.22447E-02
          max. resid. norm for Fia-block=  2.026D-04 for orbital    195a         
          max. resid. fock norm         =  2.153D-04 for orbital    230a         
          Delta Eig. =     0.0018789950 eV 
 
                                              current damping :  1.150
 ITERATION  ENERGY          1e-ENERGY        2e-ENERGY     RMS[dD(SAO)]   TOL
  14  -2521.1257952991    -21767.266524     10041.310717    0.367D-05 0.146D-14
          Norm of current diis error: 0.13618E-02
          max. resid. norm for Fia-block=  1.333D-04 for orbital    195a         
          max. resid. fock norm         =  1.380D-04 for orbital    230a         
          Delta Eig. =     0.0010569464 eV 
 
                                              current damping :  1.200
 ITERATION  ENERGY          1e-ENERGY        2e-ENERGY     RMS[dD(SAO)]   TOL
  15  -2521.1257954889    -21767.266584     10041.310777    0.206D-05 0.140D-14
          Norm of current diis error: 0.83341E-03
          max. resid. norm for Fia-block=  8.737D-05 for orbital    195a         
          max. resid. fock norm         =  8.810D-05 for orbital    230a         
 mo-orthogonalization: Cholesky decomposition
          Delta Eig. =     0.0006194231 eV 
 
                                              current damping :  1.250
 ITERATION  ENERGY          1e-ENERGY        2e-ENERGY     RMS[dD(SAO)]   TOL
  16  -2521.1257955594    -21767.266568     10041.310761    0.116D-05 0.134D-14
          Norm of current diis error: 0.52017E-03
          max. resid. norm for Fia-block=  5.766D-05 for orbital    195a         
          max. resid. fock norm         =  5.798D-05 for orbital    195a         
          Delta Eig. =     0.0003716368 eV 
 
                                              current damping :  1.100
 ITERATION  ENERGY          1e-ENERGY        2e-ENERGY     RMS[dD(SAO)]   TOL
  17  -2521.1257955858    -21767.266555     10041.310748    0.650D-06 0.127D-14
          Norm of current diis error: 0.33344E-03
          max. resid. norm for Fia-block=  3.861D-05 for orbital    195a         
          max. resid. fock norm         =  3.880D-05 for orbital    195a         
          Delta Eig. =     0.0002505041 eV 
 
                                              current damping :  1.150
 ITERATION  ENERGY          1e-ENERGY        2e-ENERGY     RMS[dD(SAO)]   TOL
  18  -2521.1257955970    -21767.266561     10041.310754    0.398D-06 0.119D-14
          Norm of current diis error: 0.21003E-03
          max. resid. norm for Fia-block=  2.507D-05 for orbital    195a         
          max. resid. fock norm         =  2.519D-05 for orbital    195a         
          Delta Eig. =     0.0001475571 eV 
 
                                              current damping :  1.200
 ITERATION  ENERGY          1e-ENERGY        2e-ENERGY     RMS[dD(SAO)]   TOL
  19  -2521.1257956013    -21767.266553     10041.310746    0.211D-06 0.110D-14
          Norm of current diis error: 0.13814E-03
          max. resid. norm for Fia-block=  1.659D-05 for orbital    195a         
          max. resid. fock norm         =  1.666D-05 for orbital    195a         
          Delta Eig. =     0.0000899976 eV 
 
                                              current damping :  1.250
 ITERATION  ENERGY          1e-ENERGY        2e-ENERGY     RMS[dD(SAO)]   TOL
  20  -2521.1257956034    -21767.266554     10041.310747    0.116D-06 0.180D-14
          Norm of current diis error: 0.94870E-04
          max. resid. norm for Fia-block=  1.119D-05 for orbital    195a         
          max. resid. fock norm         =  1.124D-05 for orbital    195a         
 mo-orthogonalization: Cholesky decomposition
          Delta Eig. =     0.0000560080 eV 

 DENSITY CONVERGED !

 
                                              current damping :  1.300
 ITERATION  ENERGY          1e-ENERGY        2e-ENERGY     RMS[dD(SAO)]   TOL
  21  -2521.1257956045    -21767.266552     10041.310744    0.795D-07 0.180D-14
          Norm of current diis error: 0.67741E-04
          max. resid. norm for Fia-block=  7.659D-06 for orbital    195a         
          max. resid. fock norm         =  7.700D-06 for orbital    195a         
          Delta Eig. =     0.0000358222 eV 

 ENERGY & DENSITY CONVERGED !

 
                                              current damping :  1.150
 ITERATION  ENERGY          1e-ENERGY        2e-ENERGY     RMS[dD(SAO)]   TOL
  22  -2521.1257956048    -21767.266551     10041.310743    0.465D-07 0.631D-14
          max. resid. norm for Fia-block=  2.127D-06 for orbital    195a         
          max. resid. fock norm         =  2.145D-06 for orbital    195a         

 convergence criteria satisfied after    22 iterations


                  ------------------------------------------ 
                 |  total energy      =  -2521.12579560479  |
                  ------------------------------------------ 
                 :  kinetic energy    =   2517.59788278342  :
                 :  potential energy  =  -5038.72367838821  :
                 :  virial theorem    =      1.99860065974  :
                 :  wavefunction norm =      1.00000000000  :
                  .......................................... 


 orbitals $scfmo  will be written to file mos

    irrep                202a        203a        204a        205a        206a   
 eigenvalues H         -0.29641    -0.28346    -0.28234    -0.22559    -0.22490
            eV          -8.0657     -7.7134     -7.6828     -6.1385     -6.1198
 occupation              2.0000      2.0000      2.0000      2.0000      2.0000 

    irrep                207a        208a        209a        210a        211a   
 eigenvalues H          0.01233     0.01311     0.06404     0.06413     0.08667
            eV           0.3356      0.3567      1.7426      1.7451      2.3584
 
 
 
 
 ==============================================================================
                           electrostatic moments
 ==============================================================================

 reference point for electrostatic moments:    0.00000   0.00000   0.00000

 
              nuc           elec       ->  total
 ------------------------------------------------------------------------------
                          charge      
 ------------------------------------------------------------------------------
         412.000000    -412.000000      -0.000000
 
 ------------------------------------------------------------------------------
                       dipole moment  
 ------------------------------------------------------------------------------
   x       7.292453      -6.789285       0.503168
   y      -3.673628       3.254920      -0.418707
   z       5.911063      -6.225250      -0.314187
 
   | dipole moment | =     0.7261 a.u. =     1.8455 debye 
 
 ------------------------------------------------------------------------------
                     quadrupole moment
 ------------------------------------------------------------------------------
  xx   15182.066934  -15410.378859    -228.311925
  yy   14903.282560  -15137.267188    -233.984628
  zz    2105.785932   -2395.081530    -289.295598
  xy     -55.531601      54.591764      -0.939837
  xz     158.777328    -150.628543       8.148786
  yz      13.555759     -15.281634      -1.725876
 
     1/3  trace=    -250.530717
     anisotropy=      60.133515
 
 ==============================================================================
 


    ------------------------------------------------------------------------
         total  cpu-time :  18 days 13 hours 32 minutes and 15 seconds
         total wall-time : 16 hours  5 minutes and 14 seconds
    ------------------------------------------------------------------------

   ****  dscf : all done  ****


    2019-03-25 01:12:53.109 

