           Doing BLAS/Lapack in the master proc. with  8 CPUs.
           SMPCPUS    set: Shared-memory Parallelization with   8 CPUs.

           SMP Parallelization Reference:
           C. van Wullen, J. Comput. Chem. 32 (2011) 1195--1201
 operating system is UNIX !

 ridft (c-18-172.gp.local) : TURBOMOLE V7.2 ( 21454 ) 4 Oct 2017 at 12:48:15
 Copyright (C) 2017 TURBOMOLE GmbH, Karlsruhe


    2018-04-28 20:59:33.679 



                                  r i d f t

                        DFT program with RI approximation 
                                for coulomb part 




                                                 
                                 References:     
                                                 
          TURBOMOLE:                             
              R. Ahlrichs, M. Baer, M. Haeser, H. Horn, and
              C. Koelmel
              Electronic structure calculations on workstation
              computers: the program system TURBOMOLE
              Chem. Phys. Lett. 162: 165 (1989)
          Density Functional:                              
              O. Treutler and R. Ahlrichs                      
              Efficient Molecular Numerical Integration Schemes
              J. Chem. Phys. 102: 346 (1995)                   
          Parallel Version:                                
              Performance of parallel TURBOMOLE for Density    
              Functional Calculations                          
              M. v. Arnim and R. Ahlrichs                      
              J. Comp. Chem. 19: 1746 (1998)                   
          RI-J Method:                                     
              Auxiliary Basis Sets to approximate Coulomb      
              Potentials                                       
              Chem. Phys. Lett. 240: 283 (1995)                
              K. Eichkorn, O. Treutler, H. Oehm, M. Haeser     
              and R. Ahlrichs                                  
              Chem. Phys. Lett. 242: 652 (1995)                
                                                           
              Auxiliary Basis Sets for Main Row Atoms and their
              Use to approximate Coulomb Potentials            
              K. Eichkorn, F. Weigend, O. Treutler and         
              R. Ahlrichs                                      
              Theo. Chem. Acc. 97: 119 (1997)                   
                                                           
              Accurate Coulomb-fitting basis sets for H to Rn 
              F. Weigend                                        
              Phys. Chem. Chem. Phys. 8: 1057 (2006)            
                                                           
          Multipole accelerated RI-J (MARI-J):             
              Fast evaluation of the Coulomb potential for     
              electron densities using multipole accelerated   
              resolution of identity approximation             
              M. Sierka, A. Hogekamp and R. Ahlrichs           
              J. Chem. Phys. 118: 9136 (2003)                  
          RI-JK Method:                                     
              A fully direct RI-HF algorithm: Implementation,
              optimised auxiliary basis sets, demonstration of
              accuracy and efficiency                         
              F. Weigend                                      
              Phys. Chem. Chem. Phys. 4: 4285 (2002)           
          Two-component HF and DFT with spin-orbit coupling:  
              Self-consistent treatment of spin-orbit         
              interactions with efficient Hartree-Fock and    
              density functional methods                      
              M. K. Armbruster, F. Weigend, C. van Wüllen and 
              W. Klopper                                      
              Phys. Chem. Chem. Phys. 10: 1748 (2008)         
          Relativistic all-electron 2c calculations           
              An efficient implementation of two-component    
              relativistic exact-decoupling methods for large 
              molecules                                       
              D. Peng, N. Middendorf, F. Weigend, M. Reiher   
              J. Chem. Phys. 138, 184105 (2013)               
                                         




              +--------------------------------------------------+
              |      general information about current run       |
              +--------------------------------------------------+

 

 DENSITY CONVERGENCE CHECK SWITCHED ON !
 SCF CONVERGENCE IF RMS(delta[D]) <     0.1000000000E-06

 TPSS meta-GGA functional
 exchange:    LDA + TPSS
 correlation: LDA (PW) + TPSS
 A DFT calculation using the RI-J approximation will be carried out.
 Allocatable memory for RI due to $ricore (MB):                  5000


              +--------------------------------------------------+
              | Atomic coordinate, charge and isotop information |
              +--------------------------------------------------+

                    atomic coordinates            atom    charge  isotop
         -1.32695823   -0.10593853    0.01878815    o      8.000     0
         -1.93166525    1.60017432   -0.02171052    h      1.000     0
          0.48664428    0.07959809    0.00986248    h      1.000     0
 
       center of nuclear mass  :   -1.25931974   -0.00009951    0.01602283
       center of nuclear charge:   -1.20606868    0.08322642    0.01384572

              +--------------------------------------------------+
              |               basis set information              |
              +--------------------------------------------------+

              we will work with the 1s 3p 5d 7f 9g ... basis set
              ...i.e. with spherical basis functions...

   type   atoms  prim   cont   basis
   ---------------------------------------------------------------------------
    o        1     77     55   cc-pVQZ   [5s4p3d2f1g|21s6p3d2f1g]
    h        2     32     30   cc-pVQZ   [4s3p2d1f|6s3p2d1f]
   ---------------------------------------------------------------------------
   total:    3    141    115
   ---------------------------------------------------------------------------

   total number of primitive shells          :   45
   total number of contracted shells         :   35
   total number of cartesian basis functions :  140
   total number of SCF-basis functions       :  115


 integral neglect threshold       :  0.24E-12
 integral storage threshold THIZE :  0.10E-04
 integral storage threshold THIME :         5

 RI-J AUXILIARY BASIS SET information:

              we will work with the 1s 3p 5d 7f 9g ... basis set
              ...i.e. with spherical basis functions...

   type   atoms  prim   cont   basis
   ---------------------------------------------------------------------------
    o        1     70     49   cc-pVQZ   [6s4p3d1f1g|12s5p4d2f1g]
    h        2     16     11   cc-pVQZ   [3s1p1d|5s2p1d]
   ---------------------------------------------------------------------------
   total:    3    102     71
   ---------------------------------------------------------------------------

   total number of primitive shells          :   32
   total number of contracted shells         :   25
   total number of cartesian basis functions :   85
   total number of SCF-basis functions       :   71


 symmetry group of the molecule :   c1 

 the group has the following generators :
   c1(z)

    1 symmetry operations found

 there are 1 real representations :   a   

 maximum number of shells which are related by symmetry :  1


    mo occupation :
   irrep   mo's   occupied
    a      115        5
 
 number of basis functions   :                    115
 number of occupied orbitals :                      5
 
  
           ------------------
           density functional
           ------------------
 TPSS meta-GGA functional
 exchange:    LDA + TPSS
 correlation: LDA (PW) + TPSS

 iterations will be done with small grid
  
 spherical integration : Lebedev's spherical grid
 spherical gridsize    :                     5
    i.e. gridpoints    :                   590
 value for diffuse not defined
 radial integration    : Chebyshev 2nd kind (scaling 3)
 radial gridsize       :                     8
 integration cells     :                     3
 partition function    : becke
 partition sharpness   :                     3
  

 biggest AO integral is expected to be     4.785886462
  
           ------------------------
               RI-J - INFORMATION
           ------------------------
 Contributions to RI integral batches: 
  neglected integral batches:                     0
  direct contribution:                            0
  memory contribution:                   630
 Memory core needed for (P|Q) and Cholesky      1 MByte
 Memory core minimum needed except of (P|Q)     1 MByte
 Total minimum memory core needed (sum)         1 MByte
  
 ****************************************
 Memory allocated for RI-J     7 MByte
 ****************************************
                                            

          ------------------------
          nuclear repulsion energy  :   9.15671409308    
          ------------------------


         -----------------
         -S,T+V- integrals
         -----------------

 1e-integrals will be neglected if expon. factor < 0.238712E-13
 Difference densities >>NOT<< switched on in parallel ridft!

 DIIS switched on: error vector is FDS-SDF
 Max. Iterations for DIIS is     :   4
 DIIS matrix (see manual) 
    Scaling factor of diagonals  :  1.200
    threshold for scaling factor :  0.000

 scf convergence criterion : increment of total energy < .1000000D-08
                  and increment of one-electron energy < .1000000D-05

  MOs are in ASCII format !


 automatic virtual orbital shift switched on 
      shift if e(lumo)-e(homo) < 0.10000000    


 reading orbital data $scfmo  from file mos
 orbital characterization : expanded
 mo provided and orthogonalized by Cholesky decomposition

 DSCF restart information will be dumped onto file mos


 Starting SCF iterations

          Overall gridpoints after grid construction =         13739

 ITERATION  ENERGY          1e-ENERGY        2e-ENERGY     RMS[dD(SAO)]   TOL
   1  -76.219362182837    -124.36451311     38.988436831    0.000D+00 0.238D-12
                            Exc = -9.51003064215     Coul =  48.4984674731    
                              N = 10.000002238    
                            current damping = 0.700
 
          max. resid. norm for Fia-block=  3.230D-01 for orbital      4a         
          max. resid. fock norm         =  1.383D+01 for orbital    114a         

 ITERATION  ENERGY          1e-ENERGY        2e-ENERGY     RMS[dD(SAO)]   TOL
   2  -76.423323601634    -123.19594229     37.615904597    0.595D-02 0.238D-12
                            Exc = -9.33973754296     Coul =  46.9556421403    
                              N = 10.000002214    
                            current damping = 0.650
 
          Norm of current diis error:  1.2353    
          max. resid. norm for Fia-block=  1.396D-01 for orbital      1a         
          max. resid. fock norm         =  1.420D-01 for orbital      1a         

 ITERATION  ENERGY          1e-ENERGY        2e-ENERGY     RMS[dD(SAO)]   TOL
   3  -76.459115475812    -123.30184267     37.686013100    0.362D-02 0.238D-12
                            Exc = -9.36865055030     Coul =  47.0546636505    
                              N = 10.000002024    
                            current damping = 0.600
 
          Norm of current diis error: 0.55097    
          max. resid. norm for Fia-block=  5.593D-02 for orbital      1a         
          max. resid. fock norm         =  5.762D-02 for orbital      1a         

 ITERATION  ENERGY          1e-ENERGY        2e-ENERGY     RMS[dD(SAO)]   TOL
   4  -76.468512444647    -123.00445449     37.379227956    0.178D-02 0.238D-12
                            Exc = -9.33519955944     Coul =  46.7144275151    
                              N = 10.000001957    
                            current damping = 0.650
 
          Norm of current diis error: 0.19280    
          max. resid. norm for Fia-block=  2.100D-02 for orbital      1a         
          max. resid. fock norm         =  3.114D-02 for orbital     90a         

 ITERATION  ENERGY          1e-ENERGY        2e-ENERGY     RMS[dD(SAO)]   TOL
   5  -76.469873021772    -123.08274316     37.456156043    0.620D-03 0.238D-12
                            Exc = -9.34948401166     Coul =  46.8056400545    
                              N = 10.000001934    
                            current damping = 0.700
 
          Norm of current diis error: 0.81731E-01
          max. resid. norm for Fia-block=  8.424D-03 for orbital      1a         
          max. resid. fock norm         =  9.223D-03 for orbital    107a         
          mo-orthogonalization: Cholesky decomposition

 ITERATION  ENERGY          1e-ENERGY        2e-ENERGY     RMS[dD(SAO)]   TOL
   6  -76.470142944086    -123.03894363     37.412086595    0.275D-03 0.238D-12
                            Exc = -9.34476250899     Coul =  46.7568491044    
                              N = 10.000001924    
                            current damping = 0.750
 
          Norm of current diis error: 0.31359E-01
          max. resid. norm for Fia-block=  3.460D-03 for orbital      1a         
          max. resid. fock norm         =  5.300D-03 for orbital     89a         

 ITERATION  ENERGY          1e-ENERGY        2e-ENERGY     RMS[dD(SAO)]   TOL
   7  -76.470183944649    -123.04389868     37.417000647    0.981D-04 0.238D-12
                            Exc = -9.34599222135     Coul =  46.7629928685    
                              N = 10.000001920    
                            current damping = 0.800
 
          Norm of current diis error: 0.13530E-01
          max. resid. norm for Fia-block=  1.476D-03 for orbital      1a         
          max. resid. fock norm         =  2.110D-03 for orbital    107a         

 ITERATION  ENERGY          1e-ENERGY        2e-ENERGY     RMS[dD(SAO)]   TOL
   8  -76.470191929240    -123.04156334     37.414657322    0.428D-04 0.238D-12
                            Exc = -9.34590337578     Coul =  46.7605606980    
                              N = 10.000001919    
                            current damping = 0.850
 
          Norm of current diis error: 0.59949E-02
          max. resid. norm for Fia-block=  6.576D-04 for orbital      1a         
          max. resid. fock norm         =  1.046D-03 for orbital     89a         

 ITERATION  ENERGY          1e-ENERGY        2e-ENERGY     RMS[dD(SAO)]   TOL
   9  -76.470193439848    -123.04228567     37.415378134    0.177D-04 0.238D-12
                            Exc = -9.34610325445     Coul =  46.7614813886    
                              N = 10.000001918    
                            current damping = 0.900
 
          Norm of current diis error: 0.27843E-02
          max. resid. norm for Fia-block=  3.032D-04 for orbital      1a         
          max. resid. fock norm         =  4.307D-04 for orbital    107a         

 ITERATION  ENERGY          1e-ENERGY        2e-ENERGY     RMS[dD(SAO)]   TOL
  10  -76.470193772607    -123.04121894     37.414311074    0.863D-05 0.238D-12
                            Exc = -9.34600149337     Coul =  46.7603125671    
                              N = 10.000001918    
                            current damping = 0.950
 
          Norm of current diis error: 0.13579E-02
          max. resid. norm for Fia-block=  1.485D-04 for orbital      2a         
          max. resid. fock norm         =  2.663D-04 for orbital     89a         
          mo-orthogonalization: Cholesky decomposition

 ITERATION  ENERGY          1e-ENERGY        2e-ENERGY     RMS[dD(SAO)]   TOL
  11  -76.470193841583    -123.04181634     37.414908404    0.350D-05 0.238D-12
                            Exc = -9.34610374688     Coul =  46.7610121512    
                              N = 10.000001918    
                            current damping = 1.000
 
          Norm of current diis error: 0.65876E-03
          max. resid. norm for Fia-block=  6.987D-05 for orbital      1a         
          max. resid. fock norm         =  1.018D-04 for orbital    107a         

 ITERATION  ENERGY          1e-ENERGY        2e-ENERGY     RMS[dD(SAO)]   TOL
  12  -76.470193859780    -123.04153872     37.414630770    0.192D-05 0.238D-12
                            Exc = -9.34607533683     Coul =  46.7607061065    
                              N = 10.000001917    
                            current damping = 1.050
 
          Norm of current diis error: 0.31886E-03
          max. resid. norm for Fia-block=  3.498D-05 for orbital      1a         
          max. resid. fock norm         =  6.110D-05 for orbital    107a         

 ITERATION  ENERGY          1e-ENERGY        2e-ENERGY     RMS[dD(SAO)]   TOL
  13  -76.470193863786    -123.04157894     37.414670987    0.847D-06 0.238D-12
                            Exc = -9.34608547656     Coul =  46.7607564638    
                              N = 10.000001917    
                            current damping = 1.100
 
          Norm of current diis error: 0.16157E-03
          max. resid. norm for Fia-block=  1.792D-05 for orbital      1a         
          max. resid. fock norm         =  2.984D-05 for orbital    107a         

 ITERATION  ENERGY          1e-ENERGY        2e-ENERGY     RMS[dD(SAO)]   TOL
  14  -76.470193864842    -123.04156206     37.414654103    0.441D-06 0.238D-12
                            Exc = -9.34608546779     Coul =  46.7607395711    
                              N = 10.000001917    
                            current damping = 1.150
 
          Norm of current diis error: 0.85033E-04
          max. resid. norm for Fia-block=  9.390D-06 for orbital      1a         
          max. resid. fock norm         =  1.691D-05 for orbital    107a         

 ITERATION  ENERGY          1e-ENERGY        2e-ENERGY     RMS[dD(SAO)]   TOL
  15  -76.470193865121    -123.04157319     37.414665230    0.217D-06 0.238D-12
                            Exc = -9.34608816445     Coul =  46.7607533945    
                              N = 10.000001917    
                            current damping = 1.200
 
          Norm of current diis error: 0.45455E-04
          max. resid. norm for Fia-block=  5.025D-06 for orbital      1a         
          max. resid. fock norm         =  8.091D-06 for orbital    107a         
          mo-orthogonalization: Cholesky decomposition

 ITERATION  ENERGY          1e-ENERGY        2e-ENERGY     RMS[dD(SAO)]   TOL
  16  -76.470193865203    -123.04155911     37.414651153    0.123D-06 0.238D-12
                            Exc = -9.34608684609     Coul =  46.7607379993    
                              N = 10.000001917    
                            current damping = 1.250
 
          Norm of current diis error: 0.25523E-04
          max. resid. norm for Fia-block=  2.769D-06 for orbital      2a         
          max. resid. fock norm         =  5.364D-06 for orbital    107a         

 DENSITY CONVERGED !


 ITERATION  ENERGY          1e-ENERGY        2e-ENERGY     RMS[dD(SAO)]   TOL
  17  -76.470193865226    -123.04156691     37.414658952    0.589D-07 0.238D-12
                            Exc = -9.34608823432     Coul =  46.7607471860    
                              N = 10.000001917    
                            current damping = 1.300
 
          Norm of current diis error: 0.13772E-04
          max. resid. norm for Fia-block=  1.524D-06 for orbital      1a         
          max. resid. fock norm         =  2.580D-06 for orbital    107a         

 ENERGY & DENSITY CONVERGED !

          Overall gridpoints after grid construction =         46225

 ITERATION  ENERGY          1e-ENERGY        2e-ENERGY     RMS[dD(SAO)]   TOL
  18  -76.470187275516    -123.04156355     37.414662183    0.353D-07 0.238D-12
                            Exc = -9.34608135826     Coul =  46.7607435415    
                              N = 9.9999999950    
                            current damping = 1.350
 
          Norm of current diis error: 0.78279E-05
          max. resid. norm for Fia-block=  8.605D-07 for orbital      1a         
          max. resid. fock norm         =  1.565D-06 for orbital    107a         

 End of SCF iterations

   convergence criteria satisfied after    18 iterations


                  ------------------------------------------ 
                 |  total energy      =    -76.47018727552  |
                  ------------------------------------------ 
                 :  kinetic energy    =     76.23646707562  :
                 :  potential energy  =   -152.70665435114  :
                 :  virial theorem    =      1.99694364290  :
                 :  wavefunction norm =      1.00000000000  :
                  .......................................... 


 <geterg> : there is no data group $energy 


 <skperg> : $end is missing 


 orbitals $scfmo  will be written to file mos

    irrep                  1a          2a          3a          4a          5a   
 eigenvalues H        -18.87845    -0.94507    -0.48116    -0.34171    -0.26192
            eV        -513.7128    -25.7168    -13.0930     -9.2986     -7.1273
 occupation              2.0000      2.0000      2.0000      2.0000      2.0000 

    irrep                  6a          7a          8a          9a         10a   
 eigenvalues H          0.00341     0.07210     0.27978     0.31692     0.32271
            eV           0.0927      1.9620      7.6132      8.6238      8.7813
 
 
 
 
 ==============================================================================
                           electrostatic moments
 ==============================================================================

 reference point for electrostatic moments:    0.00000   0.00000   0.00000

 
              nuc           elec       ->  total
 ------------------------------------------------------------------------------
                          charge      
 ------------------------------------------------------------------------------
          10.000000     -10.000000      -0.000000
 
 ------------------------------------------------------------------------------
                       dipole moment  
 ------------------------------------------------------------------------------
   x     -12.060687      12.454142       0.393455
   y       0.832264      -0.213340       0.618924
   z       0.138457      -0.154623      -0.016166
 
   | dipole moment | =     0.7336 a.u. =     1.8646 debye 
 
 ------------------------------------------------------------------------------
                     quadrupole moment
 ------------------------------------------------------------------------------
  xx      18.054699     -22.681830      -4.627132
  yy       2.656678      -6.828309      -4.171632
  zz       0.003393      -5.580485      -5.577092
  xy      -1.927657       0.599319      -1.328338
  xz      -0.152712       0.188200       0.035488
  yz      -0.049879       0.026548      -0.023331
 
     1/3  trace=      -4.791952
     anisotropy=       2.615620
 
 ==============================================================================
 


    ------------------------------------------------------------------------
         total  cpu-time :  27.93 seconds
         total wall-time :   2.41 seconds
    ------------------------------------------------------------------------

   ****  ridft : all done  ****


    2018-04-28 20:59:36.076 

