 this is node-proc. number 0 running on node c-5-27.local
 the total number of node-proc. spawned is  33

 dscfserver (c-5-27.local) : TURBOMOLE V7.2 ( 21471 ) 7 Nov 2017 at 16:15:16
 Copyright (C) 2017 TURBOMOLE GmbH, Karlsruhe


    2018-02-18 21:57:25.883 

 
    0:05:04 ---- Start global counter...
    1:55:30 ---- ... finished.
 
    1:59:20 ---- Start global counter...
    3:47:13 ---- ... finished.
 
    3:51:08 ---- Start global counter...
    5:32:47 ---- ... finished.
 
    5:36:39 ---- Start global counter...
    7:13:32 ---- ... finished.
 
    7:17:28 ---- Start global counter...
    8:40:38 ---- ... finished.
 
    8:46:04 ---- Start global counter...
    9:57:23 ---- ... finished.
 
   10:01:18 ---- Start global counter...
   11:04:50 ---- ... finished.
 
   11:08:46 ---- Start global counter...
   12:04:07 ---- ... finished.
 
   12:08:08 ---- Start global counter...
   12:58:25 ---- ... finished.
 
   13:02:28 ---- Start global counter...
   13:44:01 ---- ... finished.
 
   13:49:32 ---- Start global counter...
   14:24:37 ---- ... finished.
 
   14:28:43 ---- Start global counter...
   14:56:35 ---- ... finished.
 
   15:00:39 ---- Start global counter...
   15:22:45 ---- ... finished.
 
   15:25:45 ---- ByeBye Tag received


 ! Total wall-clock time in seconds  :    55544.8
 ! Time (sec) spent in global counter:    52026.6
 ! So-called SERIAL wall-clock time  :     3518.2

  *** Regular termination of server ***
 total turnaround time of dscfserver 55546.58 sec
 cpu elapsed by dscfserver process   52066.24 sec 

   ***  dscf server : all done  ***


    2018-02-19 13:23:12.466 

