Using Slurm to start processes with PMI2
STARTING ridft ON 10 PROCESSORS!
RUNNING PROGRAM /beegfs/modfac/apps/TURBOMOLE/7.0_intel_GA/bin/em64t-unknown-linux-gnu_mpi/ridft_mpi.
PLEASE WAIT UNTIL ridft HAS FINISHED.
Look for the output in slave1.output.
  this is node-proc. number 1 running on node c-16-37.local
  the total number of node-proc. spawned is           10
  parallel platform: MPP, or cluster with fast interconnect

 ridft (c-16-37.local) : TURBOMOLE V7.0.2( ) 15 Jan 2016 at 17:47:42
 Copyright (C) 2016 TURBOMOLE GmbH, Karlsruhe


    2017-11-10 11:17:03.623 



                                  r i d f t

                        DFT program with RI approximation 
                                for coulomb part 




                                                 
                                 References:     
                                                 
          TURBOMOLE:                             
              R. Ahlrichs, M. Baer, M. Haeser, H. Horn, and
              C. Koelmel
              Electronic structure calculations on workstation
              computers: the program system TURBOMOLE
              Chem. Phys. Lett. 162: 165 (1989)
          Density Functional:                              
              O. Treutler and R. Ahlrichs                      
              Efficient Molecular Numerical Integration Schemes
              J. Chem. Phys. 102: 346 (1995)                   
          Parallel Version:                                
              Performance of parallel TURBOMOLE for Density    
              Functional Calculations                          
              M. v. Arnim and R. Ahlrichs                      
              J. Comp. Chem. 19: 1746 (1998)                   
          RI-J Method:                                     
              Auxiliary Basis Sets to approximate Coulomb      
              Potentials                                       
              Chem. Phys. Lett. 240: 283 (1995)                
              K. Eichkorn, O. Treutler, H. Oehm, M. Haeser     
              and R. Ahlrichs                                  
              Chem. Phys. Lett. 242: 652 (1995)                
                                                           
              Auxiliary Basis Sets for Main Row Atoms and their
              Use to approximate Coulomb Potentials            
              K. Eichkorn, F. Weigend, O. Treutler and         
              R. Ahlrichs                                      
              Theo. Chem. Acc. 97: 119 (1997)                   
                                                           
              Accurate Coulomb-fitting basis sets for H to Rn 
              F. Weigend                                        
              Phys. Chem. Chem. Phys. 8: 1057 (2006)            
                                                           
          Multipole accelerated RI-J (MARI-J):             
              Fast evaluation of the Coulomb potential for     
              electron densities using multipole accelerated   
              resolution of identity approximation             
              M. Sierka, A. Hogekamp and R. Ahlrichs           
              J. Chem. Phys. 118: 9136 (2003)                  
          RI-JK Method:                                     
              A fully direct RI-HF algorithm: Implementation,
              optimised auxiliary basis sets, demonstration of
              accuracy and efficiency                         
              F. Weigend                                      
              Phys. Chem. Chem. Phys. 4: 4285 (2002)           
          Two-component HF and DFT with spin-orbit coupling:  
              Self-consistent treatment of spin-orbit         
              interactions with efficient Hartree-Fock and    
              density functional methods                      
              M. K. Armbruster, F. Weigend, C. van Wüllen and 
              W. Klopper                                      
              Phys. Chem. Chem. Phys. 10: 1748 (2008)         
          Relativistic all-electron 2c calculations           
              An efficient implementation of two-component    
              relativistic exact-decoupling methods for large 
              molecules                                       
              D. Peng, N. Middendorf, F. Weigend, M. Reiher   
              J. Chem. Phys. 138, 184105 (2013)               
                                         


 


              +--------------------------------------------------+
              |      general information about current run       |
              +--------------------------------------------------+

 

 SCF run will be profiled !


 DENSITY CONVERGENCE CHECK SWITCHED ON !
 SCF CONVERGENCE IF RMS(delta[D]) <     0.1000000000E-06

 TPSS meta-GGA functional
 exchange:    LDA + TPSS
 correlation: LDA (PW) + TPSS
 A DFT calculation using the RI-J approximation will be carried out.
 Allocatable memory for RI due to $ricore (MB):       40000


              +--------------------------------------------------+
              | Atomic coordinate, charge and isotop information |
              +--------------------------------------------------+

                    atomic coordinates            atom    charge  isotop
         -2.08422109    1.99555174   -8.11450518    n      7.000     0
         -1.46615290   -0.29381273   -9.49317926    c      6.000     0
          1.48202944   -0.32705150   -9.46750317    c      6.000     0
          2.12752020    1.91935893   -8.02345572    n      7.000     0
          0.03150230    3.30585156   -7.32357580    c      6.000     0
         -2.13425235   -2.63918245   -8.23522296    n      7.000     0
         -0.04851702   -4.09667700   -7.64143889    c      6.000     0
          2.07985828   -2.71503133   -8.25867220    n      7.000     0
         -4.69068293   -3.60004734   -8.04959365    c      6.000     0
         -6.12137493   -2.57790600   -5.94552817    n      7.000     0
         -7.58344263   -0.26282406   -6.05944936    c      6.000     0
         -9.07762716   -0.27051108   -3.51458731    c      6.000     0
         -8.24077800   -2.57958351   -2.29949057    n      7.000     0
         -6.60899779   -3.97273156   -3.79098300    c      6.000     0
         -8.26799252    2.06268880   -2.30012022    n      7.000     0
         -6.60992167    3.42444076   -3.76563686    c      6.000     0
         -6.12224723    2.06348494   -5.92012496    n      7.000     0
         -9.33498802   -3.59004823   -0.00051457    c      6.000     0
         -8.23896821   -2.57822272    2.29696495    n      7.000     0
         -9.07714698   -0.27033931    3.51359803    c      6.000     0
         -7.58347796   -0.26356029    6.05844592    c      6.000     0
         -6.11823799   -2.57654691    5.94234493    n      7.000     0
         -6.60587615   -3.97098829    3.78755843    c      6.000     0
         -6.12457632    2.06432927    5.92185859    n      7.000     0
         -6.61266952    3.42662981    3.76823296    c      6.000     0
         -8.26851862    2.06412877    2.30082434    n      7.000     0
         -4.68976509   -3.59995871    8.04724000    c      6.000     0
         -2.13320998   -2.63973368    8.23407968    n      7.000     0
         -1.46572828   -0.29502197    9.49412903    c      6.000     0
          1.48247976   -0.32643885    9.46596267    c      6.000     0
          2.08064819   -2.71624170    8.26093798    n      7.000     0
         -0.04735276   -4.09832465    7.64420034    c      6.000     0
          2.12539993    1.91773244    8.01739442    n      7.000     0
          0.02804505    3.30331933    7.31989840    c      6.000     0
         -2.08624726    1.99540888    8.11865464    n      7.000     0
          4.60712321   -3.76402435    8.09501058    c      6.000     0
          6.08310685   -2.83023357    5.98572680    n      7.000     0
          7.56945279   -0.52932060    6.03870905    c      6.000     0
          9.09944367   -0.64098207    3.51883409    c      6.000     0
          8.11440994   -2.89522994    2.29359406    n      7.000     0
          6.47874104   -4.23856577    3.82271679    c      6.000     0
          8.49495732    1.73959967    2.30162728    n      7.000     0
          6.83592215    3.19452231    3.69443254    c      6.000     0
          6.14366350    1.80887515    5.79870098    n      7.000     0
         -0.08277057   -6.25096177    6.78964767    o      8.000     0
         -4.60120459    3.05905276    7.97360210    c      6.000     0
          0.03187174    5.35254930    6.23208095    o      8.000     0
          4.67031471    2.91467882    7.82205249    c      6.000     0
         -5.78927654   -6.08508237    3.31507645    o      8.000     0
         -9.36756746    3.06828180   -0.00023376    c      6.000     0
         -5.75502771    5.53692610    3.26376641    o      8.000     0
          9.15943737   -3.96373930   -0.00044333    c      6.000     0
          8.11404862   -2.89472784   -2.29421332    n      7.000     0
          9.09997411   -0.64146111   -3.52065314    c      6.000     0
          7.57064446   -0.53077645   -6.04070593    c      6.000     0
          6.08524715   -2.83221325   -5.98783800    n      7.000     0
          6.47934821   -4.23902157   -3.82366184    c      6.000     0
          6.14365443    1.80698712   -5.80148965    n      7.000     0
          6.83871308    3.19523172   -3.69966293    c      6.000     0
          8.49627616    1.74018738   -2.30515823    n      7.000     0
          4.60593042   -3.76419707   -8.09543028    c      6.000     0
          5.59093448   -6.33077265   -3.37235518    o      8.000     0
          9.66654084    2.65106410   -0.00128993    c      6.000     0
          6.14336341    5.34715754   -3.19736559    o      8.000     0
          4.67378481    2.91262487   -7.82771392    c      6.000     0
          5.59039912   -6.33051130    3.37215373    o      8.000     0
          6.13861642    5.34529994    3.18974508    o      8.000     0
         -5.79372420   -6.08755243   -3.31933721    o      8.000     0
         -4.59877969    3.06070608   -7.97044871    c      6.000     0
         -5.75001465    5.53317934   -3.25874295    o      8.000     0
         -0.08440840   -6.24859545   -6.78530092    o      8.000     0
          0.03750823    5.35624221   -6.23801204    o      8.000     0
         -2.28783379   -0.23593741   11.39164783    h      1.000     0
          2.34050122   -0.23373512   11.34630215    h      1.000     0
          5.64291366    2.60691991    9.62344129    h      1.000     0
          4.51524416    4.93202250    7.42446639    h      1.000     0
          5.62128896   -3.35085954    9.85014512    h      1.000     0
          4.40185228   -5.80009787    7.84535678    h      1.000     0
        -11.13215120   -0.27383095    3.74459665    h      1.000     0
         -8.78760824   -0.25089478    7.73974584    h      1.000     0
         -4.40233397    5.08554555    7.65291595    h      1.000     0
         -5.58014679    2.70631383    9.76080341    h      1.000     0
         -4.55390323   -5.63747786    7.76284321    h      1.000     0
         -5.70085342   -3.18242107    9.80350498    h      1.000     0
         11.14481842   -0.80930659   -3.78866563    h      1.000     0
          8.75470452   -0.47863758   -7.73700253    h      1.000     0
          5.64717556    2.60083348   -9.62792864    h      1.000     0
          4.52189732    4.93078662   -7.43301929    h      1.000     0
          5.61834968   -3.35113790   -9.85161552    h      1.000     0
          4.39985030   -5.80027456   -7.84630448    h      1.000     0
          8.75325189   -0.47750186    7.73521957    h      1.000     0
         11.14430271   -0.80779197    3.78727063    h      1.000     0
          9.49100286    4.70504409   -0.00114858    h      1.000     0
         11.65871640    2.09813118   -0.00070562    h      1.000     0
          8.70526777   -5.97515567   -0.00083696    h      1.000     0
         11.21113873   -3.68783154   -0.00053725    h      1.000     0
         -8.78751149   -0.24692163   -7.74076705    h      1.000     0
        -11.13256354   -0.27266972   -3.74607120    h      1.000     0
        -11.39596132    2.66734636   -0.00029215    h      1.000     0
         -9.04099330    5.10341915   -0.00071205    h      1.000     0
        -11.36850738   -3.20912649    0.00018897    h      1.000     0
         -8.98391602   -5.62165632   -0.00016422    h      1.000     0
          2.33847259   -0.23836495  -11.34880925    h      1.000     0
         -2.28959653   -0.23204079  -11.39005196    h      1.000     0
         -4.39883627    5.08669054   -7.64736753    h      1.000     0
         -5.57735566    2.71020610   -9.75830651    h      1.000     0
         -4.55461963   -5.63754155   -7.76524770    h      1.000     0
         -5.70054577   -3.18250592   -9.80656596    h      1.000     0
 
       center of nuclear mass  :    0.01050305   -0.39167639   -0.00061296
       center of nuclear charge:    0.01036748   -0.39135115   -0.00061451

              +--------------------------------------------------+
              |               basis set information              |
              +--------------------------------------------------+

              we will work with the 1s 3p 5d 7f 9g ... basis set
              ...i.e. with spherical basis functions...

   type   atoms  prim   cont   basis
   ---------------------------------------------------------------------------
    n       24     77     55   cc-pVQZ   [5s4p3d2f1g|21s6p3d2f1g]
    c       36     77     55   cc-pVQZ   [5s4p3d2f1g|21s6p3d2f1g]
    o       12     77     55   cc-pVQZ   [5s4p3d2f1g|21s6p3d2f1g]
    h       36     32     30   cc-pVQZ   [4s3p2d1f|6s3p2d1f]
   ---------------------------------------------------------------------------
   total:  108   6696   5040
   ---------------------------------------------------------------------------

   total number of primitive shells          :  111
   total number of contracted shells         : 1440
   total number of cartesian basis functions : 6300
   total number of SCF-basis functions       : 5040


 integral neglect threshold       :  0.53E-14
 integral storage threshold THIZE :  0.10E-04
 integral storage threshold THIME :         5

 RI-J AUXILIARY BASIS SET information:

              we will work with the 1s 3p 5d 7f 9g ... basis set
              ...i.e. with spherical basis functions...

   type   atoms  prim   cont   basis
   ---------------------------------------------------------------------------
    n       24     70     49   cc-pVQZ   [6s4p3d1f1g|12s5p4d2f1g]
    c       36     70     49   cc-pVQZ   [6s4p3d1f1g|12s5p4d2f1g]
    o       12     70     49   cc-pVQZ   [6s4p3d1f1g|12s5p4d2f1g]
    h       36     16     11   cc-pVQZ   [3s1p1d|5s2p1d]
   ---------------------------------------------------------------------------
   total:  108   5616   3924
   ---------------------------------------------------------------------------

   total number of primitive shells          :   80
   total number of contracted shells         : 1260
   total number of cartesian basis functions : 4824
   total number of SCF-basis functions       : 3924


 symmetry group of the molecule :   c1 

 the group has the following generators :
   c1(z)

    1 symmetry operations found

 there are 1 real representations :   a   

 maximum number of shells which are related by symmetry :  1


    mo occupation :
   irrep   mo's   occupied
    a     5040      258
 
 number of basis functions   :         5040
 number of occupied orbitals :          258
 
  
           ------------------
           density functional
           ------------------
 TPSS meta-GGA functional
 exchange:    LDA + TPSS
 correlation: LDA (PW) + TPSS
 grinp -> nfun, dfgga, dfhybrid 
           5 F F
 iterations will be done with small grid
  
 spherical integration : Lebedev's spherical grid
 spherical gridsize    :           5
    i.e. gridpoints    :         590
 value for diffuse not defined
 radial integration    : Chebyshev 2nd kind (scaling 3)
 radial gridsize       :           8
 integration cells     :         108
 partition function    : becke
 partition sharpness   :           3
  

 <rddim> : input of entry tasksize
           from data group '$pardft' failed !

               Default values taken

 <rddim> : input of entry memdiv
           from data group '$pardft' failed !

               Default values taken
  RIDFT: memory allocation for DFT gridpoints
  MEMORY is divided by 1 as DEFAULT
 Each node can hold at most  the            1 -th part
 of the gridpoints    

 biggest AO integral is expected to be     4.785886462
  
           ------------------------
               RI-J - INFORMATION
           ------------------------
 
 
 **************************************************
 *      MEMORY ALLOCATION FOR PARALLEL RI-DFT     *
 **************************************************
 
 
MEMORY FOR (MU NU/ ALPHA), SEQUENTIAL RUN              39870 MByte
 
            DIFFERENCE IN MEMORY NEED:       DIAG./SLAVE  
 
      TOTAL DIFFERENCE :                   1162 MByte
 
      difference in xcore:                  130 MByte
      difference in fatmat:                 342 MByte
      getcor calls skipped by slaves:       691 MByte
 
 
           Integral memory available for diagonal.     39870 MByte
 
           Integral memory available for slave             0 MByte
 
         MEMORY FOR (MU NU/ ALPHA) ON DIAGONALIZER     39870 MByte
 
         MEMORY FOR (MU NU/ ALPHA) ON ONE SLAVE            0 MByte
 
         TOTAL MEMORY FOR (MU NU/ ALPHA),ALL NODES     39870 MByte
 
 Contributions to RI integral batches: 
  neglected integral batches:      704247
  direct contribution:             211322
  memory contribution:      121951
 Memory core needed for (P|Q) and Cholesky    118 MByte
 Memory core minimum needed except of (P|Q)    21 MByte
 Total minimum memory core needed (sum)       138 MByte
     number of direct tasks:         200
  
 ****************************************
 Memory allocated for RI-J 40008 MByte
 ****************************************
                                            

          ------------------------
          nuclear repulsion energy  :   13445.4493223    
          ------------------------

 
          -----------------
          -S integrals
          -----------------

 1e-integrals will be neglected if expon. factor < 0.530470E-15
 
          -----------------
          -T+V integrals
          -----------------

 1e-integrals will be neglected if expon. factor < 0.530470E-15
 Difference densities >>NOT<< switched on in parallel ridft!

 automatic virtual orbital shift switched on 
      shift if e(lumo)-e(homo) < 0.10000000    


 DIIS switched on: error vector is FDS-SDF
 Max. Iterations for DIIS is     :   4
 DIIS matrix (see manual) 
    Scaling factor of diagonals  :  1.200
    threshold for scaling factor :  0.000

 scf convergence criterion : increment of total energy < .1000000D-08
                  and increment of one-electron energy < .1000000D-05


 <geterg> : there is no data group $energy 

  MOs are in ASCII format !


 reading orbital data $scfmo  from file mos . 

 orbital characterization : expanded
 
 mo provided and orthogonalized by Cholesky decomposition

 DSCF restart information will be dumped onto file mos


 Starting SCF iterations


 ITERATION  ENERGY          1e-ENERGY        2e-ENERGY     RMS[dD(SAO)]   TOL
   1  -3597.6027417826    -31630.767015     14587.714951    0.000D+00 0.529D-14
                            Exc = -477.111704525     Coul =  15064.8266552    
                              N = 516.00148727    
                            current damping = 0.700
 
          max. resid. norm for Fia-block=  4.428D-01 for orbital    190a         
          max. resid. fock norm         =  8.763D+00 for orbital   4448a         

 ITERATION  ENERGY          1e-ENERGY        2e-ENERGY     RMS[dD(SAO)]   TOL
   2  -3610.1557014322    -31702.489381     14646.884357    0.400D-02 0.529D-14
                            Exc = -477.700959691     Coul =  15124.5853171    
                              N = 516.00124363    
                            current damping = 0.650
 
          Norm of current diis error:  9.6111    
          max. resid. norm for Fia-block=  1.655D-01 for orbital      1a         
          max. resid. fock norm         =  3.729D-01 for orbital   4696a         

 ITERATION  ENERGY          1e-ENERGY        2e-ENERGY     RMS[dD(SAO)]   TOL
   3  -3611.9162644003    -31724.761420     14667.395833    0.147D-02 0.529D-14
                            Exc = -479.985939875     Coul =  15147.3817730    
                              N = 516.00113214    
                            current damping = 0.550
 
          Norm of current diis error:  4.6603    
          max. resid. norm for Fia-block=  6.346D-02 for orbital      1a         
          max. resid. fock norm         =  8.104D-02 for orbital   2644a         

 ITERATION  ENERGY          1e-ENERGY        2e-ENERGY     RMS[dD(SAO)]   TOL
   4  -3612.4446894205    -31735.785371     14677.891359    0.692D-03 0.529D-14
                            Exc = -479.586058516     Coul =  15157.4774175    
                              N = 516.00107679    
                            current damping = 0.450
 
          Norm of current diis error:  2.1008    
          max. resid. norm for Fia-block=  3.452D-02 for orbital     90a         
          max. resid. fock norm         =  8.468D-02 for orbital   4875a         

 ITERATION  ENERGY          1e-ENERGY        2e-ENERGY     RMS[dD(SAO)]   TOL
   5  -3612.5134379096    -31732.017992     14674.055232    0.357D-03 0.529D-14
                            Exc = -480.266262261     Coul =  15154.3214939    
                              N = 516.00106251    
                            current damping = 0.500
 
          Norm of current diis error:  1.5174    
          max. resid. norm for Fia-block=  1.385D-02 for orbital    228a         
          max. resid. fock norm         =  1.567D-02 for orbital    243a         
          mo-orthogonalization: Cholesky decomposition

 ITERATION  ENERGY          1e-ENERGY        2e-ENERGY     RMS[dD(SAO)]   TOL
   6  -3612.5751188712    -31738.746388     14680.721947    0.170D-03 0.529D-14
                            Exc = -480.291279698     Coul =  15161.0132265    
                              N = 516.00106715    
                            current damping = 0.550
 
          Norm of current diis error: 0.26825    
          max. resid. norm for Fia-block=  3.374D-03 for orbital    192a         
          max. resid. fock norm         =  6.263D-03 for orbital   4874a         

 ITERATION  ENERGY          1e-ENERGY        2e-ENERGY     RMS[dD(SAO)]   TOL
   7  -3612.5769356693    -31737.580117     14679.553859    0.708D-04 0.529D-14
                            Exc = -480.189631619     Coul =  15159.7434903    
                              N = 516.00106403    
                            current damping = 0.600
 
          Norm of current diis error: 0.11681    
          max. resid. norm for Fia-block=  1.360D-03 for orbital     82a         
          max. resid. fock norm         =  2.579D-03 for orbital   4865a         

 ITERATION  ENERGY          1e-ENERGY        2e-ENERGY     RMS[dD(SAO)]   TOL
   8  -3612.5772574932    -31737.904287     14679.877708    0.199D-04 0.529D-14
                            Exc = -480.214358841     Coul =  15160.0920663    
                              N = 516.00106500    
                            current damping = 0.650
 
          Norm of current diis error: 0.30909E-01
          max. resid. norm for Fia-block=  6.509D-04 for orbital    245a         
          max. resid. fock norm         =  1.803D-03 for orbital   4879a         

 ITERATION  ENERGY          1e-ENERGY        2e-ENERGY     RMS[dD(SAO)]   TOL
   9  -3612.5772745554    -31738.081952     14680.055355    0.599D-05 0.529D-14
                            Exc = -480.232663298     Coul =  15160.2880182    
                              N = 516.00106539    
                            current damping = 0.500
 
          Norm of current diis error: 0.23460E-01
          max. resid. norm for Fia-block=  4.415D-04 for orbital    245a         
          max. resid. fock norm         =  9.271D-04 for orbital   5035a         

 ITERATION  ENERGY          1e-ENERGY        2e-ENERGY     RMS[dD(SAO)]   TOL
  10  -3612.5772880826    -31738.106548     14680.079938    0.423D-05 0.529D-14
                            Exc = -480.231375283     Coul =  15160.3113131    
                              N = 516.00106553    
                            current damping = 0.350
 
          Norm of current diis error: 0.10112E-01
          max. resid. norm for Fia-block=  1.472D-04 for orbital    245a         
          max. resid. fock norm         =  3.351D-04 for orbital   5031a         
          mo-orthogonalization: Cholesky decomposition

 ITERATION  ENERGY          1e-ENERGY        2e-ENERGY     RMS[dD(SAO)]   TOL
  11  -3612.5772904605    -31738.048395     14680.021782    0.220D-05 0.529D-14
                            Exc = -480.227219732     Coul =  15160.2490015    
                              N = 516.00106550    
                            current damping = 0.400
 
          Norm of current diis error: 0.44075E-02
          max. resid. norm for Fia-block=  6.839D-05 for orbital    205a         
          max. resid. fock norm         =  1.550D-04 for orbital   4869a         

 ITERATION  ENERGY          1e-ENERGY        2e-ENERGY     RMS[dD(SAO)]   TOL
  12  -3612.5772906565    -31738.058446     14680.031833    0.444D-06 0.529D-14
                            Exc = -480.229501329     Coul =  15160.2613346    
                              N = 516.00106553    
                            current damping = 0.450
 
          Norm of current diis error: 0.34919E-02
          max. resid. norm for Fia-block=  3.452D-05 for orbital    232a         
          max. resid. fock norm         =  5.421D-05 for orbital    205a         

 ITERATION  ENERGY          1e-ENERGY        2e-ENERGY     RMS[dD(SAO)]   TOL
  13  -3612.5772909570    -31738.077254     14680.050640    0.232D-06 0.529D-14
                            Exc = -480.229692911     Coul =  15160.2803333    
                              N = 516.00106555    
                            current damping = 0.300
 
          Norm of current diis error: 0.94595E-03
          max. resid. norm for Fia-block=  1.071D-05 for orbital    236a         
          max. resid. fock norm         =  1.951D-05 for orbital   5035a         

 ITERATION  ENERGY          1e-ENERGY        2e-ENERGY     RMS[dD(SAO)]   TOL
  14  -3612.5772909704    -31738.067372     14680.040759    0.130D-06 0.529D-14
                            Exc = -480.229270050     Coul =  15160.2700293    
                              N = 516.00106555    
                            current damping = 0.350
 
          Norm of current diis error: 0.55416E-03
          max. resid. norm for Fia-block=  4.213D-06 for orbital    236a         
          max. resid. fock norm         =  9.874D-06 for orbital   5035a         

 DENSITY CONVERGED !


 ITERATION  ENERGY          1e-ENERGY        2e-ENERGY     RMS[dD(SAO)]   TOL
  15  -3612.5772909769    -31738.068901     14680.042287    0.408D-07 0.529D-14
                            Exc = -480.229293028     Coul =  15160.2715804    
                              N = 516.00106555    
                            current damping = 0.400
 
          Norm of current diis error: 0.99623E-04
          max. resid. norm for Fia-block=  1.239D-06 for orbital    229a         
          max. resid. fock norm         =  3.372D-06 for orbital   5024a         
          mo-orthogonalization: Cholesky decomposition

 DENSITY CONVERGED !


 ITERATION  ENERGY          1e-ENERGY        2e-ENERGY     RMS[dD(SAO)]   TOL
  16  -3612.5772909774    -31738.069603     14680.042990    0.122D-07 0.529D-14
                            Exc = -480.229334601     Coul =  15160.2723248    
                              N = 516.00106555    
                            current damping = 0.250
 
          Norm of current diis error: 0.75271E-04
          max. resid. norm for Fia-block=  7.413D-07 for orbital    236a         
          max. resid. fock norm         =  2.038D-06 for orbital   5024a         

 DENSITY CONVERGED !


 ITERATION  ENERGY          1e-ENERGY        2e-ENERGY     RMS[dD(SAO)]   TOL
  17  -3612.5772909769    -31738.069688     14680.043075    0.606D-08 0.529D-14
                            Exc = -480.229340034     Coul =  15160.2724149    
                              N = 516.00106556    
                            current damping = 0.100
 
          Norm of current diis error: 0.28733E-04
          max. resid. norm for Fia-block=  3.706D-07 for orbital    249a         
          max. resid. fock norm         =  1.049D-06 for orbital   5034a         

 ENERGY & DENSITY CONVERGED !


 ITERATION  ENERGY          1e-ENERGY        2e-ENERGY     RMS[dD(SAO)]   TOL
  18  -3612.5762388040    -31738.069679     14680.044118    0.300D-08 0.529D-14
                            Exc = -480.228281430     Coul =  15160.2723993    
                              N = 516.00015737    
                            current damping = 0.150
 
          Norm of current diis error: 0.21951E-04
          max. resid. norm for Fia-block=  1.767D-07 for orbital    232a         
          max. resid. fock norm         =  3.258D-07 for orbital   5034a         

 End of SCF iterations

   convergence criteria satisfied after   18 iterations


                  ------------------------------------------ 
                 |  total energy      =  -3612.57623880399  |
                  ------------------------------------------ 
                 :  kinetic energy    =   3598.09213493873  :
                 :  potential energy  =  -7210.66837374271  :
                 :  virial theorem    =      1.99599064410  :
                 :  wavefunction norm =      1.00000000000  :
                  .......................................... 


 <geterg> : there is no data group $energy 


 <skperg> : $end is missing 


 orbitals $scfmo  will be written to file mos

    irrep                254a        255a        256a        257a        258a   
 eigenvalues H         -0.21310    -0.21071    -0.20707    -0.20655    -0.19846
            eV          -5.7987     -5.7338     -5.6347     -5.6205     -5.4003
 occupation              2.0000      2.0000      2.0000      2.0000      2.0000 

    irrep                259a        260a        261a        262a        263a   
 eigenvalues H         -0.02313    -0.01906    -0.01874    -0.00966    -0.00949
            eV          -0.6293     -0.5187     -0.5100     -0.2627     -0.2583
 
 
 ! grave: sending quit signal to master process
 
 
 
 
 ==============================================================================
                           electrostatic moments
 ==============================================================================

 reference point for electrostatic moments:    0.00000   0.00000   0.00000

 
              nuc           elec       ->  total
 ------------------------------------------------------------------------------
                          charge      
 ------------------------------------------------------------------------------
         516.000000    -516.000000      -0.000000
 
 ------------------------------------------------------------------------------
                       dipole moment  
 ------------------------------------------------------------------------------
   x       5.349617      -5.367557      -0.017940
   y    -201.937191     201.927316      -0.009875
   z      -0.317087       0.316897      -0.000190
 
   | dipole moment | =     0.0205 a.u. =     0.0521 debye 
 
 ------------------------------------------------------------------------------
                     quadrupole moment
 ------------------------------------------------------------------------------
  xx   19115.790973  -19326.176516    -210.385544
  yy    6474.613264   -6863.075072    -388.461808
  zz   18498.048910  -18708.145147    -210.096237
  xy    -246.000172     243.012343      -2.987829
  xz      -2.439953       2.452037       0.012084
  yz      -0.488247       0.504820       0.016572
 
     1/3  trace=    -269.647863
     anisotropy=     178.296217
 
 ==============================================================================
 

    ridft profiling
  --------------------------------------------------------------------
             module   cpu total (s)       %  wall total (s)       %

               RIDFT         16282.5  100.00         16402.3  100.00
         Ridft_b_scf           542.4    3.33           543.1    3.31
        b_scf_prelim             0.0    0.00             0.0    0.00
        b_scf_molinp             0.0    0.00             0.0    0.00
         b_scf_init0             0.0    0.00             0.0    0.00
        b_scf_auxbas             0.0    0.00             0.0    0.00
      b_scf_symmetry             0.0    0.00             0.0    0.00
         b_scf_cosmo             0.0    0.00             0.0    0.00
        b_scf_params            54.2    0.33            54.3    0.33
          b_scf_ri-j           247.3    1.52           247.6    1.51
    b_scf_ri-j_auxpq           247.1    1.52           247.3    1.51
     ri-j_auxpq_chol             6.8    0.04             6.8    0.04
         b_scf_1elec            18.8    0.12            18.8    0.11
       b_scf_moinput           222.0    1.36           222.3    1.36
     moinput_orthmos           219.9    1.35           220.2    1.34
    b_scf_dft-dstmax             0.0    0.00             0.0    0.00
           Ridft_scf         15735.3   96.64         15854.0   96.66
          Scf_b_loop             0.0    0.00             0.0    0.00
                noga             0.0    0.00             0.0    0.00
            Scf_loop         15715.6   96.52         15829.6   96.51
     scf_loop_mkdmat            87.5    0.54            87.7    0.53
       scf_loop_ri-j          2136.8   13.12          2139.9   13.05
      parlp1.bc.dens             7.6    0.05             7.7    0.05
        parlp1.gs.gp             0.0    0.00             0.0    0.00
        parlp2.bc.gq             0.0    0.00             0.0    0.00
        scf_loop_dft          9888.0   60.73          9912.3   60.43
      pardft.bc.dens             0.0    0.00             0.0    0.00
        dft_grid_con             6.7    0.04             6.7    0.04
          dft_xcmrhf          9677.5   59.43          9701.5   59.15
          dft_getval           143.5    0.88           144.1    0.88
          funct2 dst             1.5    0.01             1.6    0.01
      funct2 f2loop1            16.4    0.10            16.6    0.10
      funct2 f2loop2            49.9    0.31            50.0    0.31
          funct2 s+c            74.6    0.46            74.6    0.45
        funct2 cmf_2            71.2    0.44            71.2    0.43
          dft_mkdens          4398.6   27.01          4410.4   26.89
        dft_mgga-fun             2.0    0.01             2.0    0.01
          dft_mkfock          5132.0   31.52          5144.0   31.36
     pardft.red.fock           888.7    5.46           891.9    5.44
     scf_loop_energy             1.6    0.01             1.6    0.01
     scf_loop_mkfock             2.3    0.01             2.3    0.01
       scf_loop_diis          1146.0    7.04          1147.5    7.00
       scf_loop_diag          1821.5   11.19          1826.5   11.14
         diag_tritrn           746.9    4.59           748.9    4.57
          diag_rdiag          1071.3    6.58          1074.3    6.55
     scf_loop_modump           299.1    1.84           378.2    2.31
      scf_loop_ortho           319.0    1.96           319.6    1.95
          Scf_a_loop            19.6    0.12            24.4    0.15
         Ridft_a_scf             4.8    0.03             5.1    0.03
         a_scf_fanal             4.5    0.03             4.8    0.03
 


    ------------------------------------------------------------------------
         total  cpu-time :  4 hours 31 minutes and 49 seconds
         total wall-time :  4 hours 33 minutes and 49 seconds
    ------------------------------------------------------------------------


   ****  ridft : all done  ****


    2017-11-10 15:50:52.117 

