 this is node-proc. number 0 running on node c-17-18.gp.local
 the total number of node-proc. spawned is  33

 dscfserver (c-17-18.gp.local) : TURBOMOLE V7.2 ( 21471 ) 7 Nov 2017 at 16:15:16
 Copyright (C) 2017 TURBOMOLE GmbH, Karlsruhe


    2018-02-20 02:35:45.392 

 
    0:02:10 ---- Start global counter...
    1:08:36 ---- ... finished.
 
    1:10:30 ---- Start global counter...
    2:11:57 ---- ... finished.
 
    2:13:53 ---- Start global counter...
    3:13:13 ---- ... finished.
 
    3:15:10 ---- Start global counter...
    4:10:01 ---- ... finished.
 
    4:11:57 ---- Start global counter...
    5:02:19 ---- ... finished.
 
    5:04:51 ---- Start global counter...
    5:49:38 ---- ... finished.
 
    5:51:36 ---- Start global counter...
    6:31:28 ---- ... finished.
 
    6:33:26 ---- Start global counter...
    7:09:51 ---- ... finished.
 
    7:11:47 ---- Start global counter...
    7:44:30 ---- ... finished.
 
    7:46:29 ---- Start global counter...
    8:15:56 ---- ... finished.
 
    8:18:32 ---- Start global counter...
    8:44:52 ---- ... finished.
 
    8:46:51 ---- Start global counter...
    9:09:42 ---- ... finished.
 
    9:11:42 ---- Start global counter...
    9:31:11 ---- ... finished.
 
    9:33:08 ---- Start global counter...
    9:49:50 ---- ... finished.
 
    9:51:46 ---- Start global counter...
   10:06:18 ---- ... finished.
 
   10:08:52 ---- Start global counter...
   10:28:16 ---- ... finished.
 
   10:30:14 ---- Start global counter...
   10:46:48 ---- ... finished.
 
   10:48:25 ---- ByeBye Tag received


 ! Total wall-clock time in seconds  :    38904.7
 ! Time (sec) spent in global counter:    36691.4
 ! So-called SERIAL wall-clock time  :     2213.3

  *** Regular termination of server ***
 total turnaround time of dscfserver 38905.95 sec
 cpu elapsed by dscfserver process   36684.10 sec 

   ***  dscf server : all done  ***


    2018-02-20 13:24:11.339 

