Using Slurm to start processes with PMI2
STARTING ridft ON 8 PROCESSORS!
RUNNING PROGRAM /beegfs/modfac/apps/TURBOMOLE/7.0_intel_GA/bin/em64t-unknown-linux-gnu_mpi/ridft_mpi.
PLEASE WAIT UNTIL ridft HAS FINISHED.
Look for the output in slave1.output.
  this is node-proc. number 1 running on node c-14-38.local
  the total number of node-proc. spawned is            8
  parallel platform: MPP, or cluster with fast interconnect

 ridft (c-14-38.local) : TURBOMOLE V7.0.2( ) 15 Jan 2016 at 17:47:42
 Copyright (C) 2016 TURBOMOLE GmbH, Karlsruhe


    2016-06-15 13:02:39.107 



                                  r i d f t

                        DFT program with RI approximation 
                                for coulomb part 




                                                 
                                 References:     
                                                 
          TURBOMOLE:                             
              R. Ahlrichs, M. Baer, M. Haeser, H. Horn, and
              C. Koelmel
              Electronic structure calculations on workstation
              computers: the program system TURBOMOLE
              Chem. Phys. Lett. 162: 165 (1989)
          Density Functional:                              
              O. Treutler and R. Ahlrichs                      
              Efficient Molecular Numerical Integration Schemes
              J. Chem. Phys. 102: 346 (1995)                   
          Parallel Version:                                
              Performance of parallel TURBOMOLE for Density    
              Functional Calculations                          
              M. v. Arnim and R. Ahlrichs                      
              J. Comp. Chem. 19: 1746 (1998)                   
          RI-J Method:                                     
              Auxiliary Basis Sets to approximate Coulomb      
              Potentials                                       
              Chem. Phys. Lett. 240: 283 (1995)                
              K. Eichkorn, O. Treutler, H. Oehm, M. Haeser     
              and R. Ahlrichs                                  
              Chem. Phys. Lett. 242: 652 (1995)                
                                                           
              Auxiliary Basis Sets for Main Row Atoms and their
              Use to approximate Coulomb Potentials            
              K. Eichkorn, F. Weigend, O. Treutler and         
              R. Ahlrichs                                      
              Theo. Chem. Acc. 97: 119 (1997)                   
                                                           
              Accurate Coulomb-fitting basis sets for H to Rn 
              F. Weigend                                        
              Phys. Chem. Chem. Phys. 8: 1057 (2006)            
                                                           
          Multipole accelerated RI-J (MARI-J):             
              Fast evaluation of the Coulomb potential for     
              electron densities using multipole accelerated   
              resolution of identity approximation             
              M. Sierka, A. Hogekamp and R. Ahlrichs           
              J. Chem. Phys. 118: 9136 (2003)                  
          RI-JK Method:                                     
              A fully direct RI-HF algorithm: Implementation,
              optimised auxiliary basis sets, demonstration of
              accuracy and efficiency                         
              F. Weigend                                      
              Phys. Chem. Chem. Phys. 4: 4285 (2002)           
          Two-component HF and DFT with spin-orbit coupling:  
              Self-consistent treatment of spin-orbit         
              interactions with efficient Hartree-Fock and    
              density functional methods                      
              M. K. Armbruster, F. Weigend, C. van Wüllen and 
              W. Klopper                                      
              Phys. Chem. Chem. Phys. 10: 1748 (2008)         
          Relativistic all-electron 2c calculations           
              An efficient implementation of two-component    
              relativistic exact-decoupling methods for large 
              molecules                                       
              D. Peng, N. Middendorf, F. Weigend, M. Reiher   
              J. Chem. Phys. 138, 184105 (2013)               
                                         


 


              +--------------------------------------------------+
              |      general information about current run       |
              +--------------------------------------------------+

 

 SCF run will be profiled !


 DENSITY CONVERGENCE CHECK SWITCHED ON !
 SCF CONVERGENCE IF RMS(delta[D]) <     0.1000000000E-06

 TPSS meta-GGA functional
 exchange:    LDA + TPSS
 correlation: LDA (PW) + TPSS
 A DFT calculation using the RI-J approximation will be carried out.
 Allocatable memory for RI due to $ricore (MB):        5000


              +--------------------------------------------------+
              | Atomic coordinate, charge and isotop information |
              +--------------------------------------------------+

                    atomic coordinates            atom    charge  isotop
         -8.24559321    0.09512881   -5.82330446    o      8.000     0
         -5.11261626    6.43920400   -5.83658924    o      8.000     0
          2.10725251    8.07260768   -5.77211178    o      8.000     0
          7.74273709    3.79555273   -5.86986731    o      8.000     0
          6.95555277   -3.28462748   -5.64599146    o      8.000     0
          1.65982205   -8.12844909   -5.96845433    o      8.000     0
         -5.24121212   -6.39929299   -5.86038089    o      8.000     0
         -8.26503850    0.02827030    5.94468157    o      8.000     0
         -5.13151352    6.53008093    6.00600318    o      8.000     0
          1.73839686    7.89916862    6.04105760    o      8.000     0
          7.39990297    3.23220647    5.95817422    o      8.000     0
          7.64963028   -3.77195005    5.99487270    o      8.000     0
          1.80047437   -7.93490334    5.87026416    o      8.000     0
         -5.20698918   -6.28925423    5.90305090    o      8.000     0
         -9.74781211   -2.01395673   -2.26491236    n      7.000     0
         -9.72670386    2.21485351   -2.26188880    n      7.000     0
         -7.70235364    6.35675525   -2.28072937    n      7.000     0
         -4.25061768    8.79733655   -2.21919988    n      7.000     0
          0.24328334    9.74265315   -2.14708793    n      7.000     0
          4.41545849    9.03262635   -2.15016819    n      7.000     0
          8.04318465    6.18157764   -2.18140536    n      7.000     0
          9.73139039    2.30899967   -2.23656647    n      7.000     0
          9.57397620   -2.29369289   -2.25750463    n      7.000     0
          7.61667346   -6.04375991   -2.28564265    n      7.000     0
          4.06402612   -8.97670936   -2.38294465    n      7.000     0
         -0.05451860   -9.91146239   -2.32678199    n      7.000     0
         -4.54310949   -8.88910165   -2.30070377    n      7.000     0
         -7.78771257   -6.18033042   -2.27632631    n      7.000     0
         -9.82075553   -2.04260498    2.38746110    n      7.000     0
         -9.70421612    2.18085734    2.38693198    n      7.000     0
         -7.60452252    6.27253016    2.37291021    n      7.000     0
         -4.35047081    8.97138033    2.42971538    n      7.000     0
          0.15255759    9.97898230    2.50269660    n      7.000     0
          4.19562665    8.74771234    2.48652054    n      7.000     0
          7.77943557    5.87838998    2.46059350    n      7.000     0
          9.76642591    2.14695565    2.41297240    n      7.000     0
          9.78974513   -2.45868488    2.37984550    n      7.000     0
          7.87683206   -6.22360515    2.34772016    n      7.000     0
          4.13445622   -8.90767766    2.26629186    n      7.000     0
          0.00504557   -9.83052542    2.32772686    n      7.000     0
         -4.47872652   -8.77688972    2.34596271    n      7.000     0
         -7.83576831   -6.20724012    2.37512119    n      7.000     0
        -11.06251347   -1.37653321    0.04644947    c      6.000     0
        -11.01591283    1.58359050    0.06364598    c      6.000     0
         -5.77379364   -7.05313823   -3.72710685    c      6.000     0
         -2.53448179  -10.40037233   -3.36853132    c      6.000     0
         -7.93490334    7.72015486    0.07209305    c      6.000     0
         -5.58646509    9.51957098    0.05797680    c      6.000     0
          1.85635357   -8.88377263   -3.81170989    c      6.000     0
          6.45974533   -8.23731621   -3.45275641    c      6.000     0
          1.10771966   10.96842401    0.14635929    c      6.000     0
          3.98405291   10.28908636    0.23160483    c      6.000     0
          7.91715881   -3.80237464   -3.61886334    c      6.000     0
         10.63859121   -0.01201866   -3.34010984    c      6.000     0
          9.34136981    6.01754941    0.21463509    c      6.000     0
         10.63286534    3.35617251    0.12288889    c      6.000     0
          8.39244383    4.05393499   -3.68780055    c      6.000     0
         10.54344350   -3.52974385   -0.01721541    c      6.000     0
          9.18843427   -6.16175441   -0.04643057    c      6.000     0
         -9.67456632   -4.51967689   -3.35186393    c      6.000     0
         -9.10470051    0.09909724   -3.69666336    c      6.000     0
          3.76231245  -10.33880506   -0.03382610    c      6.000     0
          0.87496210  -10.98664097    0.00857936    c      6.000     0
         -9.62511219    4.72892626   -3.33572567    c      6.000     0
         -5.60968982    7.09359727   -3.69602086    c      6.000     0
         -5.81219287   -9.44496460    0.05245880    c      6.000     0
         -8.12336573   -7.59564081    0.04089367    c      6.000     0
         -2.19064612   10.23615513   -3.29245094    c      6.000     0
          2.23569719    8.82645723   -3.61175797    c      6.000     0
         -9.73995085   -4.56160991    3.44211725    c      6.000     0
         -9.12773627    0.05209975    3.81779481    c      6.000     0
          6.88175897    8.44862539   -3.17576036    c      6.000     0
         -5.75674831   -6.98121525    3.78574505    c      6.000     0
         -2.45826914  -10.26266799    3.43219619    c      6.000     0
         -9.54538464    4.68587830    3.46358454    c      6.000     0
         -5.61568025    7.15892510    3.85305710    c      6.000     0
          1.95306975   -8.76209316    3.73638541    c      6.000     0
          6.59128916   -8.40930019    3.36201176    c      6.000     0
         -2.33793138   10.47282443    3.51111115    c      6.000     0
          1.98870999    8.74340377    3.92241005    c      6.000     0
          8.32785299   -4.09660500    3.82767808    c      6.000     0
         10.81242712   -0.15690396    3.44258969    c      6.000     0
          6.58172715    8.04605703    3.61551852    c      6.000     0
          8.19264309    3.68608090    3.85266026    c      6.000     0
        -12.98408149   -2.17363859    0.01135725    h      1.000     0
         10.34103493   -0.18458845    5.45484566    h      1.000     0
          6.18641534    7.53807975    5.57977546    h      1.000     0
          7.88457993    9.66780110    3.52853443    h      1.000     0
         12.87341913   -0.13791221    3.17205649    h      1.000     0
          7.79396757  -10.08682897    3.10601056    h      1.000     0
         -2.78050524   12.48542056    3.24242989    h      1.000     0
         -2.26735011   10.00315190    5.52217660    h      1.000     0
          6.28889519   -8.03056128    5.37130087    h      1.000     0
         -2.93138097  -12.28074432    3.25724535    h      1.000     0
        -11.38947389    5.62779340    3.26019332    h      1.000     0
         -9.06618789    4.44852870    5.46009910    h      1.000     0
         -2.32084825   -9.71750090    5.42105736    h      1.000     0
          6.62369797    8.13510093   -5.20235935    h      1.000     0
         -9.28284499   -4.34718269    5.44611513    h      1.000     0
        -11.60339089   -5.45233232    3.20597708    h      1.000     0
          8.14702510   10.06243261   -2.83783953    h      1.000     0
         -9.96208815   -8.56909543    0.01717761    h      1.000     0
         -2.62205170   12.26710050   -3.13479109    h      1.000     0
         -6.35866388  -11.45196713    0.10797895    h      1.000     0
         -2.04045069    9.67957410   -5.27758935    h      1.000     0
          0.48811626  -13.03104119    0.04839589    h      1.000     0
        -11.48142796    5.63522002   -3.10264685    h      1.000     0
          4.98630696  -12.02228648   -0.02205310    h      1.000     0
         -9.17108659    4.50070404   -5.33908104    h      1.000     0
         10.50039554   -7.76913656   -0.19042770    h      1.000     0
        -11.54792743   -5.40062942   -3.14905853    h      1.000     0
         12.61609512   -3.66060739   -0.12477862    h      1.000     0
         -9.19062636   -4.28835551   -5.34813283    h      1.000     0
         12.71201762    3.44706834    0.11629375    h      1.000     0
         10.08312511    0.03441191   -5.33038830    h      1.000     0
         10.69705934    7.58613549    0.39470710    h      1.000     0
         12.70837045   -0.11032221   -3.16154961    h      1.000     0
          5.22256052   11.95406737    0.39153236    h      1.000     0
          7.79538486   -9.82665148   -3.32786441    h      1.000     0
          0.74358834   13.01458167    0.03856931    h      1.000     0
          6.08975585   -7.75254477   -5.42752022    h      1.000     0
         -6.09183455   11.53677804   -0.02656955    h      1.000     0
         -2.43474205   -9.92654240   -5.37782042    h      1.000     0
         -9.75217737    8.73282130    0.12916278    h      1.000     0
         -2.99478128  -12.41185352   -3.11158526    h      1.000     0
        -12.91183726    2.44039233    0.07834805    h      1.000     0
 
       center of nuclear mass  :   -0.00881622    0.00691785    0.06796446
       center of nuclear charge:   -0.00884417    0.00681585    0.06797656

              +--------------------------------------------------+
              |               basis set information              |
              +--------------------------------------------------+

              we will work with the 1s 3p 5d 7f 9g ... basis set
              ...i.e. with spherical basis functions...

   type   atoms  prim   cont   basis
   ---------------------------------------------------------------------------
    o       14     77     57   def2-QZVP   [7s4p3d2f1g|15s8p3d2f1g]
    n       28     77     57   def2-QZVP   [7s4p3d2f1g|15s8p3d2f1g]
    c       42     77     57   def2-QZVP   [7s4p3d2f1g|15s8p3d2f1g]
    h       42     33     30   def2-QZVP   [4s3p2d1f|7s3p2d1f]
   ---------------------------------------------------------------------------
   total:  126   7854   6048
   ---------------------------------------------------------------------------

   total number of primitive shells          :  100
   total number of contracted shells         : 1848
   total number of cartesian basis functions : 7518
   total number of SCF-basis functions       : 6048


 integral neglect threshold       :  0.44E-14
 integral storage threshold THIZE :  0.10E-04
 integral storage threshold THIME :         5

 RI-J AUXILIARY BASIS SET information:

              we will work with the 1s 3p 5d 7f 9g ... basis set
              ...i.e. with spherical basis functions...

   type   atoms  prim   cont   basis
   ---------------------------------------------------------------------------
    o       14     70     49   def2-QZVP   [6s4p3d1f1g|12s5p4d2f1g]
    n       28     70     49   def2-QZVP   [6s4p3d1f1g|12s5p4d2f1g]
    c       42     70     49   def2-QZVP   [6s4p3d1f1g|12s5p4d2f1g]
    h       42     16     11   def2-QZVP   [3s1p1d|5s2p1d]
   ---------------------------------------------------------------------------
   total:  126   6552   4578
   ---------------------------------------------------------------------------

   total number of primitive shells          :   80
   total number of contracted shells         : 1470
   total number of cartesian basis functions : 5628
   total number of SCF-basis functions       : 4578


 symmetry group of the molecule :   c1 

 the group has the following generators :
   c1(z)

    1 symmetry operations found

 there are 1 real representations :   a   

 maximum number of shells which are related by symmetry :  1


    mo occupation :
   irrep   mo's   occupied
    a     6048      301
 
 number of basis functions   :         6048
 number of occupied orbitals :          301
 
  
           ------------------
           density functional
           ------------------
 TPSS meta-GGA functional
 exchange:    LDA + TPSS
 correlation: LDA (PW) + TPSS
 grinp -> nfun, dfgga, dfhybrid 
           5 F F
 iterations will be done with small grid
  
 spherical integration : Lebedev's spherical grid
 spherical gridsize    :           5
    i.e. gridpoints    :         590
 value for diffuse not defined
 radial integration    : Chebyshev 2nd kind (scaling 3)
 radial gridsize       :           8
 integration cells     :         126
 partition function    : becke
 partition sharpness   :           3
  

 <rddim> : input of entry tasksize
           from data group '$pardft' failed !

               Default values taken

 <rddim> : input of entry memdiv
           from data group '$pardft' failed !

               Default values taken
  RIDFT: memory allocation for DFT gridpoints
  MEMORY is divided by 1 as DEFAULT
 Each node can hold at most  the            1 -th part
 of the gridpoints    

 biggest AO integral is expected to be     6.990327543
  
           ------------------------
               RI-J - INFORMATION
           ------------------------
 
 
 **************************************************
 *      MEMORY ALLOCATION FOR PARALLEL RI-DFT     *
 **************************************************
 
 
MEMORY FOR (MU NU/ ALPHA), SEQUENTIAL RUN               4823 MByte
 
            DIFFERENCE IN MEMORY NEED:       DIAG./SLAVE  
 
      TOTAL DIFFERENCE :                   1662 MByte
 
      difference in xcore:                  178 MByte
      difference in fatmat:                 496 MByte
      getcor calls skipped by slaves:       990 MByte
 
 
           Integral memory available for diagonal.      4823 MByte
 
           Integral memory available for slave             0 MByte
 
         MEMORY FOR (MU NU/ ALPHA) ON DIAGONALIZER      4823 MByte
 
         MEMORY FOR (MU NU/ ALPHA) ON ONE SLAVE            0 MByte
 
         TOTAL MEMORY FOR (MU NU/ ALPHA),ALL NODES      4823 MByte
 
 Contributions to RI integral batches: 
  neglected integral batches:     1242825
  direct contribution:             439303
  memory contribution:       26348
 Memory core needed for (P|Q) and Cholesky    160 MByte
 Memory core minimum needed except of (P|Q)    18 MByte
 Total minimum memory core needed (sum)       178 MByte
     number of direct tasks:         160
  
 ****************************************
 Memory allocated for RI-J  5001 MByte
 ****************************************
                                            

          ------------------------
          nuclear repulsion energy  :   16557.1076283    
          ------------------------

 
          -----------------
          -S integrals
          -----------------

 1e-integrals will be neglected if expon. factor < 0.444528E-15
 
          -----------------
          -T+V integrals
          -----------------

 1e-integrals will be neglected if expon. factor < 0.444528E-15
 Difference densities >>NOT<< switched on in parallel ridft!

 automatic virtual orbital shift switched on 
      shift if e(lumo)-e(homo) < 0.10000000    


 DIIS switched on: error vector is FDS-SDF
 Max. Iterations for DIIS is     :   4
 DIIS matrix (see manual) 
    Scaling factor of diagonals  :  1.200
    threshold for scaling factor :  0.000

 scf convergence criterion : increment of total energy < .1000000D-08
                  and increment of one-electron energy < .1000000D-05


 <geterg> : there is no data group $energy 

  MOs are in ASCII format !


 reading orbital data $scfmo  from file mos . 

 orbital characterization : expanded
 
 mo provided and orthogonalized by Cholesky decomposition

 DSCF restart information will be dumped onto file mos


 Starting SCF iterations


 ITERATION  ENERGY          1e-ENERGY        2e-ENERGY     RMS[dD(SAO)]   TOL
   1  -4197.2810342527    -38641.440158     17887.051496    0.000D+00 0.443D-14
                            Exc = -556.771116306     Coul =  18443.8226119    
                              N = 602.00079503    
                            current damping = 0.700
 
          max. resid. norm for Fia-block=  8.139D-01 for orbital     98a         
          max. resid. fock norm         =  5.338D+01 for orbital   5077a         

 ITERATION  ENERGY          1e-ENERGY        2e-ENERGY     RMS[dD(SAO)]   TOL
   2  -4211.9152781686    -38724.153590     17955.130683    0.402D-02 0.443D-14
                            Exc = -557.317178076     Coul =  18512.4478614    
                              N = 602.00067481    
                            current damping = 0.650
 
          Norm of current diis error:  11.100    
          max. resid. norm for Fia-block=  1.682D-01 for orbital      2a         
          max. resid. fock norm         =  3.425D-01 for orbital   3408a         

 ITERATION  ENERGY          1e-ENERGY        2e-ENERGY     RMS[dD(SAO)]   TOL
   3  -4213.9555789031    -38751.069513     17980.006306    0.167D-02 0.443D-14
                            Exc = -559.957468492     Coul =  18539.9637748    
                              N = 602.00061197    
                            current damping = 0.550
 
          Norm of current diis error:  5.3202    
          max. resid. norm for Fia-block=  6.477D-02 for orbital      2a         
          max. resid. fock norm         =  7.292D-02 for orbital   3200a         

 ITERATION  ENERGY          1e-ENERGY        2e-ENERGY     RMS[dD(SAO)]   TOL
   4  -4214.5785395129    -38763.734164     17992.047996    0.740D-03 0.443D-14
                            Exc = -559.396374172     Coul =  18551.4443701    
                              N = 602.00058712    
                            current damping = 0.450
 
          Norm of current diis error:  2.3947    
          max. resid. norm for Fia-block=  3.729D-02 for orbital    104a         
          max. resid. fock norm         =  8.209D-02 for orbital   5797a         

 ITERATION  ENERGY          1e-ENERGY        2e-ENERGY     RMS[dD(SAO)]   TOL
   5  -4214.6537207428    -38758.668833     17986.907484    0.396D-03 0.443D-14
                            Exc = -560.276744513     Coul =  18547.1842281    
                              N = 602.00055561    
                            current damping = 0.500
 
          Norm of current diis error:  1.7706    
          max. resid. norm for Fia-block=  1.482D-02 for orbital    266a         
          max. resid. fock norm         =  1.759D-02 for orbital    282a         
          mo-orthogonalization: Cholesky decomposition

 ITERATION  ENERGY          1e-ENERGY        2e-ENERGY     RMS[dD(SAO)]   TOL
   6  -4214.7363530199    -38767.534072     17995.690091    0.163D-03 0.443D-14
                            Exc = -560.284249059     Coul =  18555.9743398    
                              N = 602.00056263    
                            current damping = 0.550
 
          Norm of current diis error: 0.32331    
          max. resid. norm for Fia-block=  3.727D-03 for orbital    222a         
          max. resid. fock norm         =  5.608D-03 for orbital   4876a         

 ITERATION  ENERGY          1e-ENERGY        2e-ENERGY     RMS[dD(SAO)]   TOL
   7  -4214.7388283734    -38765.695664     17993.849207    0.739D-04 0.443D-14
                            Exc = -560.133132641     Coul =  18553.9823401    
                              N = 602.00055906    
                            current damping = 0.600
 
          Norm of current diis error: 0.14508    
          max. resid. norm for Fia-block=  1.462D-03 for orbital     97a         
          max. resid. fock norm         =  2.461D-03 for orbital   5097a         

 ITERATION  ENERGY          1e-ENERGY        2e-ENERGY     RMS[dD(SAO)]   TOL
   8  -4214.7392785670    -38766.149199     17994.302292    0.178D-04 0.443D-14
                            Exc = -560.169597712     Coul =  18554.4718896    
                              N = 602.00055949    
                            current damping = 0.650
 
          Norm of current diis error: 0.37105E-01
          max. resid. norm for Fia-block=  5.925D-04 for orbital     97a         
          max. resid. fock norm         =  1.076D-03 for orbital   5838a         

 ITERATION  ENERGY          1e-ENERGY        2e-ENERGY     RMS[dD(SAO)]   TOL
   9  -4214.7393111274    -38766.381509     17994.534569    0.564D-05 0.443D-14
                            Exc = -560.193186579     Coul =  18554.7277559    
                              N = 602.00055932    
                            current damping = 0.500
 
          Norm of current diis error: 0.17108E-01
          max. resid. norm for Fia-block=  2.518D-04 for orbital    274a         
          max. resid. fock norm         =  3.476D-04 for orbital   6036a         

 ITERATION  ENERGY          1e-ENERGY        2e-ENERGY     RMS[dD(SAO)]   TOL
  10  -4214.7393149748    -38766.430143     17994.583200    0.378D-05 0.443D-14
                            Exc = -560.189087958     Coul =  18554.7722881    
                              N = 602.00055949    
                            current damping = 0.350
 
          Norm of current diis error: 0.13613E-01
          max. resid. norm for Fia-block=  1.308D-04 for orbital    282a         
          max. resid. fock norm         =  2.930D-04 for orbital   5738a         
          mo-orthogonalization: Cholesky decomposition

 ITERATION  ENERGY          1e-ENERGY        2e-ENERGY     RMS[dD(SAO)]   TOL
  11  -4214.7393193798    -38766.340705     17994.493758    0.167D-05 0.443D-14
                            Exc = -560.188440195     Coul =  18554.6821980    
                              N = 602.00055940    
                            current damping = 0.400
 
          Norm of current diis error: 0.45323E-02
          max. resid. norm for Fia-block=  3.653D-05 for orbital    248a         
          max. resid. fock norm         =  7.030D-05 for orbital   5411a         

 ITERATION  ENERGY          1e-ENERGY        2e-ENERGY     RMS[dD(SAO)]   TOL
  12  -4214.7393197835    -38766.387928     17994.540980    0.307D-06 0.443D-14
                            Exc = -560.190211611     Coul =  18554.7311915    
                              N = 602.00055941    
                            current damping = 0.450
 
          Norm of current diis error: 0.19085E-02
          max. resid. norm for Fia-block=  2.210D-05 for orbital    272a         
          max. resid. fock norm         =  5.280D-05 for orbital   6015a         

 ITERATION  ENERGY          1e-ENERGY        2e-ENERGY     RMS[dD(SAO)]   TOL
  13  -4214.7393198400    -38766.386968     17994.540020    0.163D-06 0.443D-14
                            Exc = -560.190727234     Coul =  18554.7307475    
                              N = 602.00055941    
                            current damping = 0.500
 
          Norm of current diis error: 0.94190E-03
          max. resid. norm for Fia-block=  1.207D-05 for orbital    283a         
          max. resid. fock norm         =  2.620D-05 for orbital   6045a         

 DENSITY CONVERGED !


 ITERATION  ENERGY          1e-ENERGY        2e-ENERGY     RMS[dD(SAO)]   TOL
  14  -4214.7393198602    -38766.384157     17994.537209    0.835D-07 0.443D-14
                            Exc = -560.190273877     Coul =  18554.7274826    
                              N = 602.00055942    
                            current damping = 0.350
 
          Norm of current diis error: 0.38079E-03
          max. resid. norm for Fia-block=  3.511D-06 for orbital    272a         
          max. resid. fock norm         =  1.030D-05 for orbital   6045a         

 DENSITY CONVERGED !


 ITERATION  ENERGY          1e-ENERGY        2e-ENERGY     RMS[dD(SAO)]   TOL
  15  -4214.7393198633    -38766.383644     17994.536696    0.266D-07 0.443D-14
                            Exc = -560.190285461     Coul =  18554.7269814    
                              N = 602.00055942    
                            current damping = 0.200
 
          Norm of current diis error: 0.12837E-03
          max. resid. norm for Fia-block=  2.119D-06 for orbital    245a         
          max. resid. fock norm         =  6.985D-06 for orbital   6045a         
          mo-orthogonalization: Cholesky decomposition

 DENSITY CONVERGED !


 ITERATION  ENERGY          1e-ENERGY        2e-ENERGY     RMS[dD(SAO)]   TOL
  16  -4214.7393198627    -38766.383892     17994.536943    0.133D-07 0.443D-14
                            Exc = -560.190325430     Coul =  18554.7272689    
                              N = 602.00055942    
                            current damping = 0.250
 
          Norm of current diis error: 0.13948E-03
          max. resid. norm for Fia-block=  1.005D-06 for orbital    280a         
          max. resid. fock norm         =  2.345D-06 for orbital   6045a         

 DENSITY CONVERGED !


 ITERATION  ENERGY          1e-ENERGY        2e-ENERGY     RMS[dD(SAO)]   TOL
  17  -4214.7393198628    -38766.384376     17994.537428    0.617D-08 0.443D-14
                            Exc = -560.190319875     Coul =  18554.7277477    
                              N = 602.00055942    
                            current damping = 0.100
 
          Norm of current diis error: 0.52812E-04
          max. resid. norm for Fia-block=  2.802D-07 for orbital    278a         
          max. resid. fock norm         =  6.505D-07 for orbital   6045a         

 DENSITY CONVERGED !


 ITERATION  ENERGY          1e-ENERGY        2e-ENERGY     RMS[dD(SAO)]   TOL
  18  -4214.7393198634    -38766.383995     17994.537047    0.315D-08 0.443D-14
                            Exc = -560.190306102     Coul =  18554.7273532    
                              N = 602.00055942    
                            current damping = 0.150
 
          Norm of current diis error: 0.13495E-04
          max. resid. norm for Fia-block=  1.522D-07 for orbital    284a         
          max. resid. fock norm         =  4.582D-07 for orbital   6045a         

 ENERGY & DENSITY CONVERGED !


 ITERATION  ENERGY          1e-ENERGY        2e-ENERGY     RMS[dD(SAO)]   TOL
  19  -4214.7380424007    -38766.384046     17994.538375    0.123D-08 0.443D-14
                            Exc = -560.189029913     Coul =  18554.7274048    
                              N = 601.99996162    
                            current damping = 0.200
 
          Norm of current diis error: 0.11906E-04
          max. resid. norm for Fia-block=  8.827D-08 for orbital    296a         
          max. resid. fock norm         =  2.829D-07 for orbital   6015a         

 End of SCF iterations

   convergence criteria satisfied after   19 iterations


                  ------------------------------------------ 
                 |  total energy      =  -4214.73804240067  |
                  ------------------------------------------ 
                 :  kinetic energy    =   4197.51716989416  :
                 :  potential energy  =  -8412.25521229483  :
                 :  virial theorem    =      1.99591412981  :
                 :  wavefunction norm =      1.00000000000  :
                  .......................................... 


 <geterg> : there is no data group $energy 


 <skperg> : $end is missing 


 orbitals $scfmo  will be written to file mos

    irrep                297a        298a        299a        300a        301a   
 eigenvalues H         -0.21976    -0.21735    -0.21445    -0.21400    -0.20817
            eV          -5.9799     -5.9144     -5.8356     -5.8232     -5.6647
 occupation              2.0000      2.0000      2.0000      2.0000      2.0000 

    irrep                302a        303a        304a        305a        306a   
 eigenvalues H         -0.02984    -0.02672    -0.02638    -0.01866    -0.01842
            eV          -0.8121     -0.7272     -0.7180     -0.5076     -0.5011
 
 
 ! grave: sending quit signal to master process
 
 
 
 
 ==============================================================================
                           electrostatic moments
 ==============================================================================

 reference point for electrostatic moments:    0.00000   0.00000   0.00000

 
              nuc           elec       ->  total
 ------------------------------------------------------------------------------
                          charge      
 ------------------------------------------------------------------------------
         602.000000    -602.000000      -0.000000
 
 ------------------------------------------------------------------------------
                       dipole moment  
 ------------------------------------------------------------------------------
   x      -5.324190       5.309300      -0.014890
   y       4.103143      -4.127704      -0.024561
   z      40.921887     -40.914145       0.007742
 
   | dipole moment | =     0.0297 a.u. =     0.0756 debye 
 
 ------------------------------------------------------------------------------
                     quadrupole moment
 ------------------------------------------------------------------------------
  xx   30120.332275  -30358.708642    -238.376367
  yy   29633.104329  -29872.508803    -239.404474
  zz    7661.110757   -8113.795087    -452.684329
  xy     130.657382    -130.512214       0.145168
  xz      47.599098     -47.989616      -0.390519
  yz     143.065647    -140.952043       2.113604
 
     1/3  trace=    -310.155057
     anisotropy=     213.828321
 
 ==============================================================================
 

    ridft profiling
  --------------------------------------------------------------------
             module   cpu total (s)       %  wall total (s)       %

               RIDFT         23470.1  100.00         23597.5  100.00
         Ridft_b_scf           526.3    2.24           527.0    2.23
        b_scf_prelim             0.0    0.00             0.0    0.00
        b_scf_molinp             0.0    0.00             0.0    0.00
         b_scf_init0             0.0    0.00             0.0    0.00
        b_scf_auxbas             0.0    0.00             0.0    0.00
      b_scf_symmetry             0.0    0.00             0.0    0.00
         b_scf_cosmo             0.0    0.00             0.0    0.00
        b_scf_params            78.4    0.33            78.6    0.33
          b_scf_ri-j            63.9    0.27            63.9    0.27
    b_scf_ri-j_auxpq            63.5    0.27            63.6    0.27
     ri-j_auxpq_chol            10.8    0.05            10.8    0.05
         b_scf_1elec            27.4    0.12            27.4    0.12
       b_scf_moinput           356.5    1.52           357.0    1.51
     moinput_orthmos           353.4    1.51           353.9    1.50
    b_scf_dft-dstmax             0.0    0.00             0.0    0.00
           Ridft_scf         22936.1   97.72         23062.1   97.73
          Scf_b_loop             0.0    0.00             0.0    0.00
                noga             0.0    0.00             0.0    0.00
            Scf_loop         22904.7   97.59         23026.4   97.58
     scf_loop_mkdmat           115.5    0.49           115.7    0.49
       scf_loop_ri-j          5500.1   23.43          5504.7   23.33
      parlp1.bc.dens             5.1    0.02             5.1    0.02
        parlp1.gs.gp           124.0    0.53           124.1    0.53
        parlp2.bc.gq             0.0    0.00             0.0    0.00
        scf_loop_dft         12658.9   53.94         12688.3   53.77
      pardft.bc.dens             0.0    0.00             0.0    0.00
        dft_grid_con            12.6    0.05            12.6    0.05
          dft_xcmrhf         12623.8   53.79         12653.2   53.62
          dft_getval           128.3    0.55           128.7    0.55
          funct2 dst             2.0    0.01             2.1    0.01
      funct2 f2loop1            22.8    0.10            22.9    0.10
      funct2 f2loop2            49.8    0.21            49.9    0.21
          funct2 s+c            51.6    0.22            51.8    0.22
        funct2 cmf_2            45.5    0.19            45.7    0.19
          dft_mkdens          5793.9   24.69          5807.6   24.61
        dft_mgga-fun             3.3    0.01             3.3    0.01
          dft_mkfock          6696.3   28.53          6711.7   28.44
     pardft.red.fock           841.2    3.58           843.2    3.57
     scf_loop_energy             0.7    0.00             0.7    0.00
     scf_loop_mkfock             1.2    0.01             1.2    0.01
       scf_loop_diis          2089.6    8.90          2092.2    8.87
       scf_loop_diag          1607.7    6.85          1611.8    6.83
         diag_tritrn           654.0    2.79           655.6    2.78
          diag_rdiag           950.8    4.05           953.2    4.04
     scf_loop_modump           520.6    2.22           600.5    2.54
      scf_loop_ortho           392.0    1.67           392.7    1.66
          Scf_a_loop            31.3    0.13            35.7    0.15
         Ridft_a_scf             7.7    0.03             8.3    0.04
         a_scf_fanal             7.7    0.03             7.7    0.03
 


    ------------------------------------------------------------------------
         total  cpu-time :  6 hours 31 minutes and 53 seconds
         total wall-time :  6 hours 34 minutes and  0 seconds
    ------------------------------------------------------------------------


   ****  ridft : all done  ****


    2016-06-15 19:36:39.502 

