           Doing BLAS/Lapack in the master proc. with  8 CPUs.
           SMPCPUS    set: Shared-memory Parallelization with   8 CPUs.

           SMP Parallelization Reference:
           C. van Wullen, J. Comput. Chem. 32 (2011) 1195--1201
 operating system is UNIX !

 ridft (c-18-173.gp.local) : TURBOMOLE V7.2 ( 21454 ) 4 Oct 2017 at 12:48:15
 Copyright (C) 2017 TURBOMOLE GmbH, Karlsruhe


    2018-04-28 20:54:14.565 



                                  r i d f t

                        DFT program with RI approximation 
                                for coulomb part 




                                                 
                                 References:     
                                                 
          TURBOMOLE:                             
              R. Ahlrichs, M. Baer, M. Haeser, H. Horn, and
              C. Koelmel
              Electronic structure calculations on workstation
              computers: the program system TURBOMOLE
              Chem. Phys. Lett. 162: 165 (1989)
          Density Functional:                              
              O. Treutler and R. Ahlrichs                      
              Efficient Molecular Numerical Integration Schemes
              J. Chem. Phys. 102: 346 (1995)                   
          Parallel Version:                                
              Performance of parallel TURBOMOLE for Density    
              Functional Calculations                          
              M. v. Arnim and R. Ahlrichs                      
              J. Comp. Chem. 19: 1746 (1998)                   
          RI-J Method:                                     
              Auxiliary Basis Sets to approximate Coulomb      
              Potentials                                       
              Chem. Phys. Lett. 240: 283 (1995)                
              K. Eichkorn, O. Treutler, H. Oehm, M. Haeser     
              and R. Ahlrichs                                  
              Chem. Phys. Lett. 242: 652 (1995)                
                                                           
              Auxiliary Basis Sets for Main Row Atoms and their
              Use to approximate Coulomb Potentials            
              K. Eichkorn, F. Weigend, O. Treutler and         
              R. Ahlrichs                                      
              Theo. Chem. Acc. 97: 119 (1997)                   
                                                           
              Accurate Coulomb-fitting basis sets for H to Rn 
              F. Weigend                                        
              Phys. Chem. Chem. Phys. 8: 1057 (2006)            
                                                           
          Multipole accelerated RI-J (MARI-J):             
              Fast evaluation of the Coulomb potential for     
              electron densities using multipole accelerated   
              resolution of identity approximation             
              M. Sierka, A. Hogekamp and R. Ahlrichs           
              J. Chem. Phys. 118: 9136 (2003)                  
          RI-JK Method:                                     
              A fully direct RI-HF algorithm: Implementation,
              optimised auxiliary basis sets, demonstration of
              accuracy and efficiency                         
              F. Weigend                                      
              Phys. Chem. Chem. Phys. 4: 4285 (2002)           
          Two-component HF and DFT with spin-orbit coupling:  
              Self-consistent treatment of spin-orbit         
              interactions with efficient Hartree-Fock and    
              density functional methods                      
              M. K. Armbruster, F. Weigend, C. van Wüllen and 
              W. Klopper                                      
              Phys. Chem. Chem. Phys. 10: 1748 (2008)         
          Relativistic all-electron 2c calculations           
              An efficient implementation of two-component    
              relativistic exact-decoupling methods for large 
              molecules                                       
              D. Peng, N. Middendorf, F. Weigend, M. Reiher   
              J. Chem. Phys. 138, 184105 (2013)               
                                         




              +--------------------------------------------------+
              |      general information about current run       |
              +--------------------------------------------------+

 

 DENSITY CONVERGENCE CHECK SWITCHED ON !
 SCF CONVERGENCE IF RMS(delta[D]) <     0.1000000000E-06

 PBE functional
 exchange:    LDA + PBE
 correlation: LDA (PW) + PBE
 A DFT calculation using the RI-J approximation will be carried out.
 Allocatable memory for RI due to $ricore (MB):                  5000


              +--------------------------------------------------+
              | Atomic coordinate, charge and isotop information |
              +--------------------------------------------------+

                    atomic coordinates            atom    charge  isotop
          4.15980206   -0.06882548   -0.00630864    n      7.000     0
          4.86017151    0.89073306    1.49249436    h      1.000     0
          4.86040449    0.80864725   -1.55448347    h      1.000     0
          5.06262237   -2.68804910    0.06448278    c      6.000     0
          4.32206736   -3.69721062   -1.56482347    h      1.000     0
          7.11620884   -2.88974934    0.07021714    h      1.000     0
          4.32161087   -3.60783582    1.74564389    h      1.000     0
 
       center of nuclear mass  :    4.66089113   -1.34632322    0.02822824
       center of nuclear charge:    4.72082287   -1.39474936    0.02954359

              +--------------------------------------------------+
              |               basis set information              |
              +--------------------------------------------------+

              we will work with the 1s 3p 5d 7f 9g ... basis set
              ...i.e. with spherical basis functions...

   type   atoms  prim   cont   basis
   ---------------------------------------------------------------------------
    n        1     77     55   cc-pVQZ   [5s4p3d2f1g|21s6p3d2f1g]
    h        5     32     30   cc-pVQZ   [4s3p2d1f|6s3p2d1f]
    c        1     77     55   cc-pVQZ   [5s4p3d2f1g|21s6p3d2f1g]
   ---------------------------------------------------------------------------
   total:    7    314    260
   ---------------------------------------------------------------------------

   total number of primitive shells          :   78
   total number of contracted shells         :   80
   total number of cartesian basis functions :  315
   total number of SCF-basis functions       :  260


 integral neglect threshold       :  0.11E-12
 integral storage threshold THIZE :  0.10E-04
 integral storage threshold THIME :         5

 RI-J AUXILIARY BASIS SET information:

              we will work with the 1s 3p 5d 7f 9g ... basis set
              ...i.e. with spherical basis functions...

   type   atoms  prim   cont   basis
   ---------------------------------------------------------------------------
    n        1     70     49   cc-pVQZ   [6s4p3d1f1g|12s5p4d2f1g]
    h        5     16     11   cc-pVQZ   [3s1p1d|5s2p1d]
    c        1     70     49   cc-pVQZ   [6s4p3d1f1g|12s5p4d2f1g]
   ---------------------------------------------------------------------------
   total:    7    220    153
   ---------------------------------------------------------------------------

   total number of primitive shells          :   56
   total number of contracted shells         :   55
   total number of cartesian basis functions :  182
   total number of SCF-basis functions       :  153


 symmetry group of the molecule :   c1 

 the group has the following generators :
   c1(z)

    1 symmetry operations found

 there are 1 real representations :   a   

 maximum number of shells which are related by symmetry :  1


    mo occupation :
   irrep   mo's   occupied
    a      260        9
 
 number of basis functions   :                    260
 number of occupied orbitals :                      9
 
  
           ------------------
           density functional
           ------------------
 PBE functional
 exchange:    LDA + PBE
 correlation: LDA (PW) + PBE

 iterations will be done with small grid
  
 spherical integration : Lebedev's spherical grid
 spherical gridsize    :                     5
    i.e. gridpoints    :                   590
 value for diffuse not defined
 radial integration    : Chebyshev 2nd kind (scaling 3)
 radial gridsize       :                     8
 integration cells     :                     7
 partition function    : becke
 partition sharpness   :                     3
  

 biggest AO integral is expected to be     4.161848376
  
           ------------------------
               RI-J - INFORMATION
           ------------------------
 Contributions to RI integral batches: 
  neglected integral batches:                    41
  direct contribution:                            0
  memory contribution:                  3199
 Memory core needed for (P|Q) and Cholesky      1 MByte
 Memory core minimum needed except of (P|Q)     1 MByte
 Total minimum memory core needed (sum)         1 MByte
  
 ****************************************
 Memory allocated for RI-J    70 MByte
 ****************************************
                                            

          ------------------------
          nuclear repulsion energy  :   42.0520284500    
          ------------------------


         -----------------
         -S,T+V- integrals
         -----------------

 1e-integrals will be neglected if expon. factor < 0.106094E-13
 Difference densities >>NOT<< switched on in parallel ridft!

 DIIS switched on: error vector is FDS-SDF
 Max. Iterations for DIIS is     :   4
 DIIS matrix (see manual) 
    Scaling factor of diagonals  :  1.200
    threshold for scaling factor :  0.000

 scf convergence criterion : increment of total energy < .1000000D-08
                  and increment of one-electron energy < .1000000D-05

  MOs are in ASCII format !


 automatic virtual orbital shift switched on 
      shift if e(lumo)-e(homo) < 0.10000000    


 reading orbital data $scfmo  from file mos
 orbital characterization : expanded
 mo provided and orthogonalized by Cholesky decomposition

 DSCF restart information will be dumped onto file mos


 Starting SCF iterations

          Overall gridpoints after grid construction =         30672

 ITERATION  ENERGY          1e-ENERGY        2e-ENERGY     RMS[dD(SAO)]   TOL
   1  -95.387349165427    -210.08532415     72.645946532    0.000D+00 0.106D-12
                            Exc = -13.8142655163     Coul =  86.4602120483    
                              N = 18.000003225    
                            current damping = 0.700
 
          max. resid. norm for Fia-block=  2.842D-01 for orbital      1a         
          max. resid. fock norm         =  9.539D+00 for orbital    236a         

 ITERATION  ENERGY          1e-ENERGY        2e-ENERGY     RMS[dD(SAO)]   TOL
   2  -95.691268534467    -211.06095362     73.317656634    0.471D-02 0.106D-12
                            Exc = -13.9464437234     Coul =  87.2641003575    
                              N = 18.000002552    
                            current damping = 0.650
 
          Norm of current diis error:  1.6563    
          max. resid. norm for Fia-block=  1.249D-01 for orbital      1a         
          max. resid. fock norm         =  1.352D-01 for orbital    159a         

 ITERATION  ENERGY          1e-ENERGY        2e-ENERGY     RMS[dD(SAO)]   TOL
   3  -95.750528755930    -211.47727623     73.674719027    0.240D-02 0.106D-12
                            Exc = -14.0305798268     Coul =  87.7052988536    
                              N = 18.000001962    
                            current damping = 0.500
 
          Norm of current diis error: 0.76309    
          max. resid. norm for Fia-block=  5.067D-02 for orbital      1a         
          max. resid. fock norm         =  5.379D-02 for orbital      1a         

 ITERATION  ENERGY          1e-ENERGY        2e-ENERGY     RMS[dD(SAO)]   TOL
   4  -95.768983154153    -211.54014761     73.719136003    0.173D-02 0.106D-12
                            Exc = -14.0558519388     Coul =  87.7749879416    
                              N = 18.000002449    
                            current damping = 0.350
 
          Norm of current diis error: 0.26485    
          max. resid. norm for Fia-block=  1.833D-02 for orbital      4a         
          max. resid. fock norm         =  2.331D-02 for orbital      4a         

 ITERATION  ENERGY          1e-ENERGY        2e-ENERGY     RMS[dD(SAO)]   TOL
   5  -95.771671623315    -211.74839087     73.924690796    0.845D-03 0.106D-12
                            Exc = -14.0892215122     Coul =  88.0139123079    
                              N = 18.000002795    
                            current damping = 0.200
 
          Norm of current diis error: 0.11253    
          max. resid. norm for Fia-block=  8.815D-03 for orbital      9a         
          max. resid. fock norm         =  8.870D-03 for orbital      9a         
          mo-orthogonalization: Cholesky decomposition

 ITERATION  ENERGY          1e-ENERGY        2e-ENERGY     RMS[dD(SAO)]   TOL
   6  -95.772040248701    -211.61176134     73.787692642    0.491D-03 0.106D-12
                            Exc = -14.0765239746     Coul =  87.8642166165    
                              N = 18.000003195    
                            current damping = 0.250
 
          Norm of current diis error: 0.64641E-01
          max. resid. norm for Fia-block=  2.146D-03 for orbital      5a         
          max. resid. fock norm         =  2.854D-03 for orbital    222a         

 ITERATION  ENERGY          1e-ENERGY        2e-ENERGY     RMS[dD(SAO)]   TOL
   7  -95.772123106090    -211.68620253     73.862050977    0.369D-04 0.106D-12
                            Exc = -14.0848850483     Coul =  87.9469360254    
                              N = 18.000003182    
                            current damping = 0.300
 
          Norm of current diis error: 0.10262E-01
          max. resid. norm for Fia-block=  5.455D-04 for orbital      7a         
          max. resid. fock norm         =  9.084D-04 for orbital    159a         

 ITERATION  ENERGY          1e-ENERGY        2e-ENERGY     RMS[dD(SAO)]   TOL
   8  -95.772124546676    -211.67679299     73.852639995    0.165D-04 0.106D-12
                            Exc = -14.0841785382     Coul =  87.9368185336    
                              N = 18.000003183    
                            current damping = 0.350
 
          Norm of current diis error: 0.57861E-02
          max. resid. norm for Fia-block=  1.869D-04 for orbital      7a         
          max. resid. fock norm         =  2.284D-04 for orbital    159a         

 ITERATION  ENERGY          1e-ENERGY        2e-ENERGY     RMS[dD(SAO)]   TOL
   9  -95.772125238543    -211.68185649     73.857702806    0.348D-05 0.106D-12
                            Exc = -14.0846765305     Coul =  87.9423793362    
                              N = 18.000003188    
                            current damping = 0.400
 
          Norm of current diis error: 0.73392E-03
          max. resid. norm for Fia-block=  3.221D-05 for orbital      9a         
          max. resid. fock norm         =  3.696D-05 for orbital      6a         

 ITERATION  ENERGY          1e-ENERGY        2e-ENERGY     RMS[dD(SAO)]   TOL
  10  -95.772125249989    -211.68216329     73.858009592    0.847D-06 0.106D-12
                            Exc = -14.0847023244     Coul =  87.9427119161    
                              N = 18.000003188    
                            current damping = 0.250
 
          Norm of current diis error: 0.13668E-03
          max. resid. norm for Fia-block=  6.439D-06 for orbital      4a         
          max. resid. fock norm         =  7.735D-06 for orbital      7a         
          mo-orthogonalization: Cholesky decomposition

 ITERATION  ENERGY          1e-ENERGY        2e-ENERGY     RMS[dD(SAO)]   TOL
  11  -95.772125250430    -211.68234812     73.858194415    0.252D-06 0.106D-12
                            Exc = -14.0847214308     Coul =  87.9429158461    
                              N = 18.000003189    
                            current damping = 0.100
 
          Norm of current diis error: 0.34955E-04
          max. resid. norm for Fia-block=  2.434D-06 for orbital      9a         
          max. resid. fock norm         =  2.500D-06 for orbital      9a         

 ITERATION  ENERGY          1e-ENERGY        2e-ENERGY     RMS[dD(SAO)]   TOL
  12  -95.772125250449    -211.68228726     73.858133559    0.123D-06 0.106D-12
                            Exc = -14.0847149749     Coul =  87.9428485342    
                              N = 18.000003189    
                            current damping = 0.150
 
          Norm of current diis error: 0.27003E-04
          max. resid. norm for Fia-block=  8.676D-07 for orbital      9a         
          max. resid. fock norm         =  1.126D-06 for orbital    222a         

 DENSITY CONVERGED !


 ITERATION  ENERGY          1e-ENERGY        2e-ENERGY     RMS[dD(SAO)]   TOL
  13  -95.772125250463    -211.68230891     73.858155212    0.259D-07 0.106D-12
                            Exc = -14.0847174615     Coul =  87.9428726730    
                              N = 18.000003189    
                            current damping = 0.200
 
          Norm of current diis error: 0.50153E-05
          max. resid. norm for Fia-block=  2.000D-07 for orbital      7a         
          max. resid. fock norm         =  2.661D-07 for orbital      7a         

 ENERGY & DENSITY CONVERGED !

          Overall gridpoints after grid construction =        103798

 ITERATION  ENERGY          1e-ENERGY        2e-ENERGY     RMS[dD(SAO)]   TOL
  14  -95.772127278294    -211.68230865     73.858152923    0.624D-08 0.106D-12
                            Exc = -14.0847194205     Coul =  87.9428723440    
                              N = 17.999999970    
                            current damping = 0.250
 
          Norm of current diis error: 0.87147E-06
          max. resid. norm for Fia-block=  5.070D-08 for orbital      6a         
          max. resid. fock norm         =  6.370D-08 for orbital    255a         

 End of SCF iterations

   convergence criteria satisfied after    14 iterations


                  ------------------------------------------ 
                 |  total energy      =    -95.77212727829  |
                  ------------------------------------------ 
                 :  kinetic energy    =     95.37405501617  :
                 :  potential energy  =   -191.14618229447  :
                 :  virial theorem    =      1.99584354787  :
                 :  wavefunction norm =      1.00000000000  :
                  .......................................... 


 <geterg> : there is no data group $energy 


 <skperg> : $end is missing 


 orbitals $scfmo  will be written to file mos

    irrep                  5a          6a          7a          8a          9a   
 eigenvalues H         -0.43838    -0.39247    -0.35652    -0.32277    -0.19694
            eV         -11.9290    -10.6797     -9.7016     -8.7832     -5.3591
 occupation              2.0000      2.0000      2.0000      2.0000      2.0000 

    irrep                 10a         11a         12a         13a         14a   
 eigenvalues H          0.00402     0.04133     0.06147     0.08190     0.09707
            eV           0.1094      1.1246      1.6727      2.2285      2.6414
 
 
 
 
 ==============================================================================
                           electrostatic moments
 ==============================================================================

 reference point for electrostatic moments:    0.00000   0.00000   0.00000

 
              nuc           elec       ->  total
 ------------------------------------------------------------------------------
                          charge      
 ------------------------------------------------------------------------------
          18.000000     -18.000000      -0.000000
 
 ------------------------------------------------------------------------------
                       dipole moment  
 ------------------------------------------------------------------------------
   x      84.974812     -84.465329       0.509483
   y     -25.105488      25.137927       0.032439
   z       0.531785      -0.532605      -0.000821
 
   | dipole moment | =     0.5105 a.u. =     1.2976 debye 
 
 ------------------------------------------------------------------------------
                     quadrupole moment
 ------------------------------------------------------------------------------
  xx     410.150358    -417.449401      -7.299044
  yy      79.870619     -89.846230      -9.975610
  zz      10.170061     -19.664466      -9.494405
  xy    -127.531415     128.094711       0.563295
  xz       2.753774      -2.773056      -0.019282
  yz      -1.679997       1.692713       0.012716
 
     1/3  trace=      -8.923020
     anisotropy=       2.657272
 
 ==============================================================================
 


    ------------------------------------------------------------------------
         total  cpu-time :  1 minutes and 14 seconds
         total wall-time :   6.89 seconds
    ------------------------------------------------------------------------

   ****  ridft : all done  ****


    2018-04-28 20:54:21.445 

