 this is node-proc. number 0 running on node c-8-20.local
 the total number of node-proc. spawned is  33

 dscfserver (c-8-20.local) : TURBOMOLE V7.2 ( 21471 ) 7 Nov 2017 at 16:15:16
 Copyright (C) 2017 TURBOMOLE GmbH, Karlsruhe


    2018-02-20 03:53:05.806 

 
    0:01:06 ---- Start global counter...
    0:15:18 ---- ... finished.
 
    0:16:32 ---- Start global counter...
    0:30:59 ---- ... finished.
 
    0:32:14 ---- Start global counter...
    0:45:35 ---- ... finished.
 
    0:46:48 ---- Start global counter...
    0:59:11 ---- ... finished.
 
    1:00:24 ---- Start global counter...
    1:12:06 ---- ... finished.
 
    1:13:37 ---- Start global counter...
    1:23:47 ---- ... finished.
 
    1:25:00 ---- Start global counter...
    1:33:59 ---- ... finished.
 
    1:35:14 ---- Start global counter...
    1:43:02 ---- ... finished.
 
    1:44:15 ---- Start global counter...
    1:51:27 ---- ... finished.
 
    1:52:41 ---- Start global counter...
    1:58:53 ---- ... finished.
 
    2:00:24 ---- Start global counter...
    2:06:10 ---- ... finished.
 
    2:07:25 ---- Start global counter...
    2:12:25 ---- ... finished.
 
    2:13:39 ---- Start global counter...
    2:18:16 ---- ... finished.
 
    2:19:32 ---- Start global counter...
    2:23:35 ---- ... finished.
 
    2:24:38 ---- ByeBye Tag received


 ! Total wall-clock time in seconds  :     8677.7
 ! Time (sec) spent in global counter:     7554.5
 ! So-called SERIAL wall-clock time  :     1123.2

  *** Regular termination of server ***
 total turnaround time of dscfserver  8678.22 sec
 cpu elapsed by dscfserver process    7560.60 sec 

   ***  dscf server : all done  ***


    2018-02-20 06:17:44.026 

