 operating system is UNIX !
 hostname is         c-9-332.local

 ridft (c-9-332.local) : TURBOMOLE V7.0( ) 6 Jul 2015 at 18:30:05
 Copyright (C) 2015 TURBOMOLE GmbH, Karlsruhe


    2015-10-08 05:00:14.168 



                                  r i d f t

                        DFT program with RI approximation 
                                for coulomb part 




                                                 
                                 References:     
                                                 
          TURBOMOLE:                             
              R. Ahlrichs, M. Baer, M. Haeser, H. Horn, and
              C. Koelmel
              Electronic structure calculations on workstation
              computers: the program system TURBOMOLE
              Chem. Phys. Lett. 162: 165 (1989)
          Density Functional:                              
              O. Treutler and R. Ahlrichs                      
              Efficient Molecular Numerical Integration Schemes
              J. Chem. Phys. 102: 346 (1995)                   
          Parallel Version:                                
              Performance of parallel TURBOMOLE for Density    
              Functional Calculations                          
              M. v. Arnim and R. Ahlrichs                      
              J. Comp. Chem. 19: 1746 (1998)                   
          RI-J Method:                                     
              Auxiliary Basis Sets to approximate Coulomb      
              Potentials                                       
              Chem. Phys. Lett. 240: 283 (1995)                
              K. Eichkorn, O. Treutler, H. Oehm, M. Haeser     
              and R. Ahlrichs                                  
              Chem. Phys. Lett. 242: 652 (1995)                
                                                           
              Auxiliary Basis Sets for Main Row Atoms and their
              Use to approximate Coulomb Potentials            
              K. Eichkorn, F. Weigend, O. Treutler and         
              R. Ahlrichs                                      
              Theo. Chem. Acc. 97: 119 (1997)                   
                                                           
              Accurate Coulomb-fitting basis sets for H to Rn 
              F. Weigend                                        
              Phys. Chem. Chem. Phys. 8: 1057 (2006)            
                                                           
          Multipole accelerated RI-J (MARI-J):             
              Fast evaluation of the Coulomb potential for     
              electron densities using multipole accelerated   
              resolution of identity approximation             
              M. Sierka, A. Hogekamp and R. Ahlrichs           
              J. Chem. Phys. 118: 9136 (2003)                  
          RI-JK Method:                                     
              A fully direct RI-HF algorithm: Implementation,
              optimised auxiliary basis sets, demonstration of
              accuracy and efficiency                         
              F. Weigend                                      
              Phys. Chem. Chem. Phys. 4: 4285 (2002)           
          Two-component HF and DFT with spin-orbit coupling:  
              Self-consistent treatment of spin-orbit         
              interactions with efficient Hartree-Fock and    
              density functional methods                      
              M. K. Armbruster, F. Weigend, C. van Wüllen and 
              W. Klopper                                      
              Phys. Chem. Chem. Phys. 10: 1748 (2008)         
          Relativistic all-electron 2c calculations           
              An efficient implementation of two-component    
              relativistic exact-decoupling methods for large 
              molecules                                       
              D. Peng, N. Middendorf, F. Weigend, M. Reiher   
              J. Chem. Phys. 138, 184105 (2013)               
                                         


 


              +--------------------------------------------------+
              |      general information about current run       |
              +--------------------------------------------------+

 

 DENSITY CONVERGENCE CHECK SWITCHED ON !
 SCF CONVERGENCE IF RMS(delta[D]) <     0.1000000000E-06

 PBE functional
 exchange:    LDA + PBE
 correlation: LDA (PW) + PBE
 A DFT calculation using the RI-J approximation will be carried out.
 Allocatable memory for RI due to $ricore (MB):        5000


              +--------------------------------------------------+
              | Atomic coordinate, charge and isotop information |
              +--------------------------------------------------+

                    atomic coordinates            atom    charge  isotop
         -5.71602471   -5.40663875   -5.57924633    o      8.000     0
         -7.75554943    1.38089847   -6.02830195    o      8.000     0
         -3.59475043    7.02501910   -6.04049069    o      8.000     0
          3.26104370    7.49514517   -6.09744703    o      8.000     0
          7.32773433    1.86245738   -5.63727982    o      8.000     0
          6.27867177   -4.99142812   -5.49596610    o      8.000     0
          0.39368665   -8.23393360   -5.40002471    o      8.000     0
         -6.05670454   -4.74738889    5.82349343    o      8.000     0
         -7.94497558    1.71708075    5.54899182    o      8.000     0
         -3.87958885    7.06802927    5.44278921    o      8.000     0
          3.04459446    7.08930759    5.42307936    o      8.000     0
          8.04031226    2.22751468    5.86565322    o      8.000     0
          6.56895260   -4.47398331    5.97512506    o      8.000     0
          0.36664466   -7.74933223    6.17522816    o      8.000     0
         -5.94188478   -8.08511767   -2.10222584    n      7.000     0
         -8.46559513   -4.69695210   -2.21438108    n      7.000     0
         -9.80699833   -0.30224280   -2.52308674    n      7.000     0
         -9.10798863    3.85989791   -2.65296762    n      7.000     0
         -6.32279687    7.54170802   -2.62358238    n      7.000     0
         -2.64406701    9.63376713   -2.62329892    n      7.000     0
          1.97979048    9.86523969   -2.61645811    n      7.000     0
          5.77077008    8.00276341   -2.52036554    n      7.000     0
          8.75383506    4.49082077   -2.41276453    n      7.000     0
          9.70784440    0.38004282   -2.24593951    n      7.000     0
          9.00705836   -4.15809669   -2.14924222    n      7.000     0
          6.65780752   -7.65099089   -2.01344650    n      7.000     0
          2.54158716   -9.70799558   -1.85459612    n      7.000     0
         -1.67921064   -9.84114568   -1.87011078    n      7.000     0
         -5.84031200   -7.63700691    2.50874372    n      7.000     0
         -8.81732986   -4.63933435    2.40545129    n      7.000     0
         -9.92697704   -0.16862026    2.10566514    n      7.000     0
         -9.17531957    3.98533793    1.98576201    n      7.000     0
         -6.53459738    7.75719349    2.00482935    n      7.000     0
         -2.73135346    9.56626612    2.01104655    n      7.000     0
          1.86172039    9.60160399    2.00983713    n      7.000     0
          5.78097460    8.03273446    2.11212800    n      7.000     0
          8.81328584    4.56423663    2.21878414    n      7.000     0
         10.12078735    0.54947567    2.36856384    n      7.000     0
          9.20081198   -3.98650956    2.47926399    n      7.000     0
          6.59081673   -7.31524324    2.61209284    n      7.000     0
          2.53835573   -9.52036467    2.78220599    n      7.000     0
         -1.68333024   -9.60390946    2.75643013    n      7.000     0
         -7.30347025   -8.24217281    0.25972396    c      6.000     0
         -9.22929015   -6.00912123    0.07934960    c      6.000     0
          0.41615549   -9.14066200   -3.28111259    c      6.000     0
          5.04796873   -9.64285672   -2.95836626    c      6.000     0
        -11.05438765    0.61395312   -0.26792537    c      6.000     0
        -10.54408601    3.52639904   -0.34638680    c      6.000     0
          7.19299686   -5.52775129   -3.44695495    c      6.000     0
         10.30014126   -2.06369432   -3.32943288    c      6.000     0
         -6.47783001    9.10590993   -0.38002393    c      6.000     0
         -3.85683655   10.47626374   -0.32361560    c      6.000     0
          8.45091196    2.20644423   -3.65295400    c      6.000     0
          8.02511887    6.86403334   -3.56939031    c      6.000     0
          3.03234904   10.68039195   -0.22631360    c      6.000     0
          5.73422277    9.47894187   -0.21331229    c      6.000     0
          3.61616103    8.34244168   -3.98940084    c      6.000     0
         10.22266249    4.27072437   -0.11224973    c      6.000     0
         11.01219007    1.42184884   -0.06572467    c      6.000     0
         -4.16735635   -9.95709928   -3.00719678    c      6.000     0
         -6.59121357   -5.98716262   -3.52696596    c      6.000     0
          9.79860794   -5.35744918    0.19180720    c      6.000     0
          8.05920953   -7.74566617    0.33982945    c      6.000     0
        -10.04383770   -2.84377327   -3.48911474    c      6.000     0
         -8.75149180    1.62163069   -3.96874613    c      6.000     0
          1.94277075  -10.94244028    0.52009043    c      6.000     0
         -1.01419712  -11.02033479    0.51400551    c      6.000     0
         -8.47436346    6.28460551   -3.75915661    c      6.000     0
         -4.11149604    7.93603718   -3.99701644    c      6.000     0
         -4.20830671   -9.44496460    3.78066169    c      6.000     0
         -6.80713368   -5.56609384    3.80331951    c      6.000     0
         -0.38221601   10.75796521   -3.68364315    c      6.000     0
          0.40884225   -8.81254885    4.13576013    c      6.000     0
          5.05565991   -9.23189797    3.82393642    c      6.000     0
        -10.38281678   -2.58741302    3.30558454    c      6.000     0
         -8.89138822    1.82919820    3.45022418    c      6.000     0
          7.34134036   -5.15989721    3.92435647    c      6.000     0
         10.67765185   -1.90027080    3.46500184    c      6.000     0
         -8.71759011    6.47713081    3.02821054    c      6.000     0
         -4.32305089    8.00489880    3.38209955    c      6.000     0
          8.87867037    2.41412513    3.73253037    c      6.000     0
          8.04414841    6.98174438    3.24080473    c      6.000     0
         -0.44644780   10.56772648    3.12005123    c      6.000     0
          3.50772855    8.10745423    3.40660930    c      6.000     0
         -8.19593121  -10.10442232    0.46041288    h      1.000     0
          7.64537840    6.67456939    5.24364987    h      1.000     0
         -0.44890444   10.00432353    5.10647465    h      1.000     0
         -0.45629327   12.63699549    2.95328290    h      1.000     0
          9.58760112    8.35060529    3.01369744    h      1.000     0
         12.68998341   -2.31825933    3.18768453    h      1.000     0
        -10.39589368    7.65505380    2.71610337    h      1.000     0
         -8.37600321    6.22643974    5.04883800    h      1.000     0
         10.24065268   -1.75285327    5.47780583    h      1.000     0
          6.04001825  -11.05629627    3.71667556    h      1.000     0
        -12.37288737   -3.10661528    3.03941661    h      1.000     0
         -9.96220154   -2.34911856    5.31253039    h      1.000     0
          4.82052129   -8.65460554    5.79286097    h      1.000     0
         -0.34510179   10.25714999   -5.68675285    h      1.000     0
         -4.02060022   -8.81878494    5.73949511    h      1.000     0
         -5.09861339  -11.31927056    3.70450573    h      1.000     0
         -0.48896664   12.81648168   -3.45205721    h      1.000     0
         -1.79794213  -12.94027764    0.60607297    h      1.000     0
        -10.12925333    7.53165468   -3.63740155    h      1.000     0
          2.82646338  -12.81891943    0.59184333    h      1.000     0
         -7.98545351    5.92616226   -5.73341019    h      1.000     0
          9.10511625   -9.53291245    0.47668342    h      1.000     0
        -12.02604703   -3.44712503   -3.35382925    h      1.000     0
         11.82431877   -5.80257417    0.12009210    h      1.000     0
         -9.44282921   -2.79095542   -5.46393524    h      1.000     0
         13.05776191    1.11866118   -0.24220620    h      1.000     0
         -4.96963958  -11.84147748   -2.68157807    h      1.000     0
         11.83061156    5.58251556   -0.16119364    h      1.000     0
         -3.91830934   -9.61883830   -5.02831558    h      1.000     0
          7.26941739   10.87567625   -0.21839565    h      1.000     0
          7.61958364    6.47837803   -5.55711764    h      1.000     0
          3.03828278   12.75213651   -0.10346251    h      1.000     0
          9.61173293    8.19090454   -3.39999526    h      1.000     0
         -3.99678967   12.54651541   -0.29271858    h      1.000     0
         12.34968153   -2.37188976   -3.21094706    h      1.000     0
         -8.09435843   10.40124161   -0.50620094    h      1.000     0
          9.69047781   -2.01913458   -5.30164556    h      1.000     0
        -12.27201379    4.67512576   -0.39759838    h      1.000     0
          4.80175631   -9.30964131   -4.98086455    h      1.000     0
        -13.07032859    0.12011099   -0.30023969    h      1.000     0
          5.97484160  -11.46888018   -2.63066885    h      1.000     0
        -11.20753106   -6.61827445   -0.06400502    h      1.000     0
          0.26909700    0.23891807   -0.00187083    fe     0.000     0
          2.72993617    0.64180769    2.88436459    c      0.000     0
         -0.11920392   -2.67152473    2.47331136    c      0.000     0
          1.95261622   -3.12965104    0.81057913    c      0.000     0
          3.70998593   -1.08844446    1.06510634    c      0.000     0
          0.34884344   -0.32703600    3.76499586    c      0.000     0
         -2.72952043    0.22387585   -2.40097264    c      0.000     0
         -2.83878439    2.37685974   -0.78257339    c      0.000     0
         -0.57147208    3.81184217   -1.12799643    c      0.000     0
          0.95062673    2.54969409   -2.95940561    c      0.000     0
         -0.37599881    0.31603780   -3.75628422    c      0.000     0
         -1.38144649    0.96865472    5.55439643    c      0.000     0
          0.60902094   -1.62444638   -5.52843160    c      0.000     0
         -0.72767684    0.46678125    8.34841321    n      0.000     0
          0.14915608   -0.96192729   -8.32688923    n      0.000     0
         -0.84973425   -2.32321041    8.89439289    c      0.000     0
          1.87727284    1.44856957    8.94600131    c      0.000     0
         -2.66385244    1.85327332    9.90261847    c      0.000     0
          1.49840165    1.45153644   -9.00637806    c      0.000     0
          1.19287072   -3.11787804   -9.85977838    c      0.000     0
         -2.63860570   -0.67228897   -8.81744324    c      0.000     0
          3.57556971    2.40114272    3.47896691    h      0.000     0
         -1.77388592   -3.84285258    2.70913028    h      0.000     0
          2.14270377   -4.71471552   -0.46143333    h      0.000     0
          5.44250575   -0.86755437    0.01007224    h      0.000     0
         -4.13530659   -1.24631218   -2.56505756    h      0.000     0
         -4.34582209    2.82478152    0.51905108    h      0.000     0
         -0.07483315    5.51775464   -0.12434398    h      0.000     0
          2.79758836    3.11687649   -3.61517837    h      0.000     0
         -3.33264542    0.33773185    5.33779602    h      0.000     0
         -1.30942903    3.02046266    5.35489805    h      0.000     0
          2.65279755   -1.85489848   -5.36818282    h      0.000     0
         -0.30082550   -3.45440047   -5.25251268    h      0.000     0
          0.59256142   -3.28088582    7.78177883    h      0.000     0
         -0.49773497   -2.59279874   10.90791498    h      0.000     0
         -2.71986393   -3.01243133    8.37265840    h      0.000     0
          3.26127046    0.34869227    7.89092941    h      0.000     0
          1.97593544    3.43442607    8.40334755    h      0.000     0
          2.18665880    1.22499607   10.97192000    h      0.000     0
         -4.52763264    1.12257291    9.41497464    h      0.000     0
         -2.24541039    1.53712213   11.89612836    h      0.000     0
         -2.55490973    3.85738457    9.43472228    h      0.000     0
          3.48764076    1.26182683   -8.50197236    h      0.000     0
          1.27960915    1.74688173  -11.03494237    h      0.000     0
          0.64159982    3.00808496   -7.96648066    h      0.000     0
          3.20100710   -3.30256098   -9.43440103    h      0.000     0
          0.20187944   -4.83943745   -9.31189008    h      0.000     0
          0.89690182   -2.69953047  -11.85636852    h      0.000     0
         -3.34464518    0.91878485   -7.71955015    h      0.000     0
         -2.89592971   -0.32227389  -10.83293065    h      0.000     0
         -3.58964817   -2.40677410   -8.24175707    h      0.000     0
 
       center of nuclear mass  :    0.02627381    0.02247040   -0.00091761
       center of nuclear charge:    0.02338652    0.01861139   -0.00210880

              +--------------------------------------------------+
              |               basis set information              |
              +--------------------------------------------------+

              we will work with the 1s 3p 5d 7f 9g ... basis set
              ...i.e. with spherical basis functions...

   type   atoms  prim   cont   basis
   ---------------------------------------------------------------------------
    o       14     46     31   def2-TZVP   [5s3p2d1f|11s6p2d1f]
    n       30     46     31   def2-TZVP   [5s3p2d1f|11s6p2d1f]
    c       60     46     31   def2-TZVP   [5s3p2d1f|11s6p2d1f]
    h       72      8      6   def2-TZVP   [3s1p|5s1p]
    fe       1     92     45   def2-TZVP   [6s4p4d1f|17s11p7d1f]
   ---------------------------------------------------------------------------
   total:  177   5452   3701
   ---------------------------------------------------------------------------

   total number of primitive shells          :  102
   total number of contracted shells         : 1447
   total number of cartesian basis functions : 4228
   total number of SCF-basis functions       : 3701


 integral neglect threshold       :  0.79E-14
 integral storage threshold THIZE :  0.10E-04
 integral storage threshold THIME :         5

 RI-J AUXILIARY BASIS SET information:

              we will work with the 1s 3p 5d 7f 9g ... basis set
              ...i.e. with spherical basis functions...

   type   atoms  prim   cont   basis
   ---------------------------------------------------------------------------
    o       14     70     49   def2-TZVP   [6s4p3d1f1g|12s5p4d2f1g]
    n       30     70     49   def2-TZVP   [6s4p3d1f1g|12s5p4d2f1g]
    c       60     70     49   def2-TZVP   [6s4p3d1f1g|12s5p4d2f1g]
    h       72     16     11   def2-TZVP   [3s1p1d|5s2p1d]
    fe       1    107     89   def2-TZVP   [8s5p5d2f3g|19s5p5d3f3g]
   ---------------------------------------------------------------------------
   total:  177   8539   5977
   ---------------------------------------------------------------------------

   total number of primitive shells          :  115
   total number of contracted shells         : 1943
   total number of cartesian basis functions : 7326
   total number of SCF-basis functions       : 5977


 symmetry group of the molecule :   c1 

 the group has the following generators :
   c1(z)

    1 symmetry operations found

 there are 1 real representations :   a   

 maximum number of shells which are related by symmetry :  1


    mo occupation :
   irrep   mo's   occupied
    a     3701      301
 
 number of basis functions   :         3701
 number of occupied orbitals :          301
 
  
           ------------------
           density functional
           ------------------
 Dummy atoms with grid-point found.
 DFT quadrature threshold dgrenze tightened by factor 1/10.

 PBE functional
 exchange:    LDA + PBE
 correlation: LDA (PW) + PBE
 Dummy atoms with grid-point found.
 DFT quadrature threshold dgrenze tightened by factor 1/10.

 Dummy atoms with grid-point found.
 DFT quadrature threshold dgrenze tightened by factor 1/10.

 iterations will be done with small grid
  
 spherical integration : Lebedev's spherical grid
 spherical gridsize    :           5
    i.e. gridpoints    :         590
 value for diffuse not defined
 radial integration    : Chebyshev 2nd kind (scaling 3)
 radial gridsize       :           8
 integration cells     :         177
 partition function    : becke
 partition sharpness   :           3
  
 found dummy atom(s) with basis: included in dft

 biggest AO integral is expected to be    15.952572132
  
           ------------------------
               RI-J - INFORMATION
           ------------------------
 Contributions to RI integral batches: 
  neglected integral batches:      650559
  direct contribution:             362038
  memory contribution:       35031
 Memory core needed for (P|Q) and Cholesky    273 MByte
 Memory core minimum needed except of (P|Q)    11 MByte
 Total minimum memory core needed (sum)       283 MByte
  
 ****************************************
 Memory allocated for RI-J  3884 MByte
 ****************************************
                                            

          ------------------------
          nuclear repulsion energy  :   16635.6159085    
          ------------------------

 
          -----------------
          -S,T+V- integrals
          -----------------

 1e-integrals will be neglected if expon. factor < 0.790436E-15
 
   Difference densities algorithm switched on.
   The maximal number of linear combinations of
   difference densities is          20 .

 automatic virtual orbital shift switched on 
      shift if e(lumo)-e(homo) < 0.10000000    


 DIIS switched on: error vector is FDS-SDF
 Max. Iterations for DIIS is     :   4
 DIIS matrix (see manual) 
    Scaling factor of diagonals  :  1.200
    threshold for scaling factor :  0.000

 scf convergence criterion : increment of total energy < .1000000D-08
                  and increment of one-electron energy < .1000000D-05

  MOs are in ASCII format !


 reading orbital data $scfmo  from file mos . 

 orbital characterization : scfconv=9
 

 DSCF restart information will be dumped onto file mos


 Starting SCF iterations

          Overall gridpoints after grid construction =        919664

 ITERATION  ENERGY          1e-ENERGY        2e-ENERGY     RMS[dD(SAO)]   TOL
   1  -4209.1983836843    -38924.008775     18079.194483    0.000D+00 0.788D-14
                            Exc = -554.289553284     Coul =  18633.4840363    
                              N = 602.00096856    
                            current damping = 0.700
 
          max. resid. norm for Fia-block=  2.181D-07 for orbital    283a         
          max. resid. fock norm         =  7.082D-07 for orbital   3671a         

 ITERATION  ENERGY          1e-ENERGY        2e-ENERGY     RMS[dD(SAO)]   TOL
   2  -4209.1983836839    -38924.008759     18079.194466    0.211D-08 0.500D-14
                            Exc = -554.289553363     Coul =  18633.4840198    
                              N = 602.00096856    
                            current damping = 0.700
 
          Norm of current diis error: 0.82408E-05
          max. resid. norm for Fia-block=  7.669D-08 for orbital    283a         
          max. resid. fock norm         =  2.532D-07 for orbital   3671a         

 ENERGY & DENSITY CONVERGED !

          Overall gridpoints after grid construction =       2653835

 ITERATION  ENERGY          1e-ENERGY        2e-ENERGY     RMS[dD(SAO)]   TOL
   3  -4209.1982652025    -38924.008763     18079.194589    0.688D-09 0.457D-14
                            Exc = -554.289435188     Coul =  18633.4840243    
                              N = 602.00012572    
                            current damping = 0.750
 
          Norm of current diis error: 0.37595E-05
          max. resid. norm for Fia-block=  2.934D-08 for orbital    271a         
          max. resid. fock norm         =  9.612D-08 for orbital   3671a         

 End of SCF iterations

   convergence criteria satisfied after    3 iterations


                  ------------------------------------------ 
                 |  total energy      =  -4209.19826520249  |
                  ------------------------------------------ 
                 :  kinetic energy    =   4191.69751301664  :
                 :  potential energy  =  -8400.89577821914  :
                 :  virial theorem    =      1.99584225995  :
                 :  wavefunction norm =      1.00000000000  :
                  .......................................... 


 orbitals $scfmo  will be written to file mos

    irrep                297a        298a        299a        300a        301a   
 eigenvalues H         -0.21270    -0.21066    -0.20738    -0.20735    -0.20100
            eV          -5.7878     -5.7323     -5.6431     -5.6423     -5.4696
 occupation              2.0000      2.0000      2.0000      2.0000      2.0000 

    irrep                302a        303a        304a        305a        306a   
 eigenvalues H         -0.02733    -0.02364    -0.02352    -0.01492    -0.01456
            eV          -0.7438     -0.6434     -0.6401     -0.4061     -0.3962
 
 
 
 
 ==============================================================================
                           electrostatic moments
 ==============================================================================

 reference point for electrostatic moments:    0.00000   0.00000   0.00000

 
              nuc           elec       ->  total
 ------------------------------------------------------------------------------
                          charge      
 ------------------------------------------------------------------------------
         602.000000    -602.000000      -0.000000
 
 ------------------------------------------------------------------------------
                       dipole moment  
 ------------------------------------------------------------------------------
   x      14.078686     -14.045016       0.033670
   y      11.204054     -11.175708       0.028346
   z      -1.269499       1.266962      -0.002537
 
   | dipole moment | =     0.0441 a.u. =     0.1121 debye 
 
 ------------------------------------------------------------------------------
                     quadrupole moment
 ------------------------------------------------------------------------------
  xx   29509.128723  -29742.344037    -233.215314
  yy   29579.217139  -29812.398314    -233.181175
  zz    7468.555266   -7914.528805    -445.973539
  xy    -299.664514     299.092214      -0.572301
  xz     330.732581    -330.178361       0.554219
  yz    -902.449325     896.683233      -5.766092
 
     1/3  trace=    -304.123342
     anisotropy=     213.014024
 
 ==============================================================================
 
 


    ------------------------------------------------------------------------
         total  cpu-time : 58 minutes and 33 seconds
         total wall-time : 58 minutes and 36 seconds
    ------------------------------------------------------------------------


   ****  ridft : all done  ****


    2015-10-08 05:58:50.364 

