
   OpenMP run-time library returned nthreads = 28
 operating system is UNIX !

 dscf (c-16-38) : TURBOMOLE V7.3 ( 22142 ) 4 Jul 2018 at 18:12:42
 Copyright (C) 2018 TURBOMOLE GmbH, Karlsruhe


    2019-04-01 22:37:46.843 



                             d s c f - program

                   idea & directorship : reinhart ahlrichs
                   program development : marco haeser
                                         michael baer
                           dft version : oliver treutler


                          quantum chemistry group
                          universitaet  karlsruhe
                                  germany




                          References             
                                                 
          TURBOMOLE:                             
              R. Ahlrichs, M. Baer, M. Haeser, H. Horn, and
              C. Koelmel
              Electronic structure calculations on workstation
              computers: the program system TURBOMOLE
              Chem. Phys. Lett. 162: 165 (1989)
          Density Functional:                              
              O. Treutler and R. Ahlrichs                      
              Efficient Molecular Numerical Integration Schemes
              J. Chem. Phys. 102: 346 (1995)                   
          Parallel Version:                                
              Performance of parallel TURBOMOLE for Density    
              Functional Calculations                          
              M. v. Arnim and R. Ahlrichs                      
              J. Comp. Chem. 19: 1746 (1998)                   
                                         




              +--------------------------------------------------+
              | Atomic coordinate, charge and isotop information |
              +--------------------------------------------------+

                    atomic coordinates            atom    charge  isotop
          0.72286221   -0.13342784    1.44922307    c      6.000     0
         -1.96652361    0.74986460    2.00487836    c      6.000     0
         -3.34779081   -0.53195838    1.16847480    h      1.000     0
         -2.31438118    0.82341998    4.03554587    h      1.000     0
         -2.29425231    2.63375749    1.23416246    h      1.000     0
          1.11653991   -2.77188457    2.54730908    c      6.000     0
          3.02906809   -3.44487625    2.17337942    h      1.000     0
          0.82953040   -2.77174821    4.58879681    h      1.000     0
         -0.20771691   -4.11711656    1.71835424    h      1.000     0
          2.60455104    1.69779678    2.64400926    c      6.000     0
          4.54364612    1.10632267    2.26905776    h      1.000     0
          2.35040532    1.78763235    4.68786235    h      1.000     0
          2.35908342    3.59997103    1.88774326    h      1.000     0
          1.13754132   -0.20982422   -1.40424905    c      6.000     0
          0.86778458    1.65736370   -2.23535363    h      1.000     0
          3.04943970   -0.83801691   -1.85131197    h      1.000     0
         -0.18808592   -1.50715074   -2.30399320    h      1.000     0
 
       center of nuclear mass  :    0.72300536   -0.13350146    1.44814904
       center of nuclear charge:    0.72301323   -0.13350598    1.44808911

              +--------------------------------------------------+
              |               basis set information              |
              +--------------------------------------------------+

              we will work with the 1s 3p 5d 7f 9g ... basis set
              ...i.e. with spherical basis functions...

   type   atoms  prim   cont   basis
   ---------------------------------------------------------------------------
    c        5     77     55   cc-pVQZ   [5s4p3d2f1g|21s6p3d2f1g]
    h       12     32     30   cc-pVQZ   [4s3p2d1f|6s3p2d1f]
   ---------------------------------------------------------------------------
   total:   17    769    635
   ---------------------------------------------------------------------------

   total number of primitive shells          :   45
   total number of contracted shells         :  195
   total number of cartesian basis functions :  770
   total number of SCF-basis functions       :  635


 integral neglect threshold       :  0.43E-13
 integral storage threshold THIZE :  0.10E-04
 integral storage threshold THIME :         5


 DENSITY CONVERGENCE CHECK SWITCHED ON !
 SCF CONVERGENCE IF RMS(delta[D]) <     0.1000000000E-06


 symmetry group of the molecule :   c1 

 the group has the following generators :
   c1(z)

    1 symmetry operations found

 there are 1 real representations :   a   

 maximum number of shells which are related by symmetry :  1


    mo occupation :
   irrep   mo's   occupied
    a      635       21
 
 number of basis functions   :                    635
 number of occupied orbitals :                     21
 

 automatic virtual orbital shift switched on 
      shift if e(lumo)-e(homo) < 0.10000000    


          ------------------------
          nuclear repulsion energy  :   199.354937352    
          ------------------------


         -----------------
         -S,T+V- integrals
         -----------------

 1e-integrals will be neglected if expon. factor < 0.434021E-14
 
   Difference densities algorithm switched on.
   The maximal number of linear combinations of
   difference densities is                    20 .

 DIIS switched on: error vector is FDS-SDF
 Max. Iterations for DIIS is     :   5
 DIIS matrix (see manual) 
    Scaling factor of diagonals  :  1.200
    threshold for scaling factor :  0.000

 scf convergence criterion : increment of total energy < .1000000D-08
                  and increment of one-electron energy < .1000000D-05

  MOs are in ASCII format !


 reading orbital data $scfmo  from file mos
 orbital characterization : scfconv=9

 DSCF restart information will be dumped onto file mos

 
                                              current damping :  0.700
 ITERATION  ENERGY          1e-ENERGY        2e-ENERGY     RMS[dD(SAO)]   TOL
   1  -196.36794548032    -659.11722318     263.39434035    0.000D+00 0.433D-13
          max. resid. norm for Fia-block=  1.035D-01 for orbital      2a         
          max. resid. fock norm         =  2.538D-01 for orbital    633a         
          Delta Eig. =    22.4934517360 eV 
 
                                              current damping :  0.650
 ITERATION  ENERGY          1e-ENERGY        2e-ENERGY     RMS[dD(SAO)]   TOL
   2  -196.40596094620    -658.46024654     262.69934824    0.769D-03 0.282D-13
          Norm of current diis error: 0.61046    
          max. resid. norm for Fia-block=  4.901D-02 for orbital      4a         
          max. resid. fock norm         =  9.107D-02 for orbital    634a         
          Delta Eig. =     9.7253822947 eV 
 
                                              current damping :  0.600
 ITERATION  ENERGY          1e-ENERGY        2e-ENERGY     RMS[dD(SAO)]   TOL
   3  -196.41405294814    -658.65012691     262.88113661    0.381D-03 0.210D-13
          Norm of current diis error: 0.27466    
          max. resid. norm for Fia-block=  2.015D-02 for orbital      5a         
          max. resid. fock norm         =  3.814D-02 for orbital    633a         
          Delta Eig. =     3.8658822970 eV 
 
                                              current damping :  0.650
 ITERATION  ENERGY          1e-ENERGY        2e-ENERGY     RMS[dD(SAO)]   TOL
   4  -196.41576146407    -658.56843692     262.79773811    0.159D-03 0.185D-13
          Norm of current diis error: 0.11014    
          max. resid. norm for Fia-block=  7.636D-03 for orbital      5a         
          max. resid. fock norm         =  1.390D-02 for orbital    633a         
          Delta Eig. =     1.3916910688 eV 
 
                                              current damping :  0.500
 ITERATION  ENERGY          1e-ENERGY        2e-ENERGY     RMS[dD(SAO)]   TOL
   5  -196.41604024227    -658.56426247     262.79328487    0.619D-04 0.170D-13
          Norm of current diis error: 0.46859E-01
          max. resid. norm for Fia-block=  2.994D-03 for orbital      5a         
          max. resid. fock norm         =  5.473D-03 for orbital    633a         
 mo-orthogonalization: Cholesky decomposition
          Delta Eig. =     0.6002680170 eV 
 
                                              current damping :  0.350
 ITERATION  ENERGY          1e-ENERGY        2e-ENERGY     RMS[dD(SAO)]   TOL
   6  -196.41609502795    -658.55848572     262.78745334    0.278D-04 0.159D-13
          Norm of current diis error: 0.17344E-01
          max. resid. norm for Fia-block=  9.784D-04 for orbital      5a         
          max. resid. fock norm         =  1.822D-03 for orbital    633a         
          Delta Eig. =     0.2225940088 eV 
 
                                              current damping :  0.200
 ITERATION  ENERGY          1e-ENERGY        2e-ENERGY     RMS[dD(SAO)]   TOL
   7  -196.41610330950    -658.55619700     262.78515634    0.110D-04 0.148D-13
          Norm of current diis error: 0.53161E-02
          max. resid. norm for Fia-block=  2.882D-04 for orbital     13a         
          max. resid. fock norm         =  4.656D-04 for orbital    634a         
          Delta Eig. =     0.0643661745 eV 
 
                                              current damping :  0.050
 ITERATION  ENERGY          1e-ENERGY        2e-ENERGY     RMS[dD(SAO)]   TOL
   8  -196.41610418893    -658.55558498     262.78454344    0.360D-05 0.138D-13
          Norm of current diis error: 0.12673E-02
          max. resid. norm for Fia-block=  6.736D-05 for orbital     13a         
          max. resid. fock norm         =  7.971D-05 for orbital    634a         
          Delta Eig. =     0.0125483542 eV 
 
                                              current damping :  0.050
 ITERATION  ENERGY          1e-ENERGY        2e-ENERGY     RMS[dD(SAO)]   TOL
   9  -196.41610424837    -658.55522818     262.78418658    0.931D-06 0.130D-13
          Norm of current diis error: 0.22461E-03
          max. resid. norm for Fia-block=  1.399D-05 for orbital     20a         
          max. resid. fock norm         =  1.461D-05 for orbital     20a         
          Delta Eig. =     0.0009505723 eV 
 
                                              current damping :  0.100
 ITERATION  ENERGY          1e-ENERGY        2e-ENERGY     RMS[dD(SAO)]   TOL
  10  -196.41610425063    -658.55524635     262.78420475    0.192D-06 0.125D-13
          Norm of current diis error: 0.53419E-04
          max. resid. norm for Fia-block=  3.571D-06 for orbital     20a         
          max. resid. fock norm         =  3.584D-06 for orbital     20a         
 mo-orthogonalization: Cholesky decomposition
          Delta Eig. =     0.0000893542 eV 

 DENSITY CONVERGED !

 
                                              current damping :  0.150
 ITERATION  ENERGY          1e-ENERGY        2e-ENERGY     RMS[dD(SAO)]   TOL
  11  -196.41610425076    -658.55519547     262.78415387    0.508D-07 0.123D-13
          Norm of current diis error: 0.15472E-04
          max. resid. norm for Fia-block=  1.086D-06 for orbital     20a         
          max. resid. fock norm         =  1.300D-06 for orbital     21a         
          Delta Eig. =     0.0000973263 eV 

 DENSITY CONVERGED !

 
                                              current damping :  0.200
 ITERATION  ENERGY          1e-ENERGY        2e-ENERGY     RMS[dD(SAO)]   TOL
  12  -196.41610425077    -658.55521352     262.78417192    0.136D-07 0.123D-13
          Norm of current diis error: 0.44528E-05
          max. resid. norm for Fia-block=  2.738D-07 for orbital     20a         
          max. resid. fock norm         =  2.951D-07 for orbital     20a         
          Delta Eig. =     0.0000144585 eV 

 ENERGY & DENSITY CONVERGED !

 
                                              current damping :  0.250
 ITERATION  ENERGY          1e-ENERGY        2e-ENERGY     RMS[dD(SAO)]   TOL
  13  -196.41610425077    -658.55520792     262.78416632    0.318D-08 0.123D-13
          max. resid. norm for Fia-block=  6.106D-08 for orbital     21a         
          max. resid. fock norm         =  6.697D-08 for orbital     21a         

 convergence criteria satisfied after    13 iterations


                  ------------------------------------------ 
                 |  total energy      =   -196.41610425077  |
                  ------------------------------------------ 
                 :  kinetic energy    =    196.33239026774  :
                 :  potential energy  =   -392.74849451851  :
                 :  virial theorem    =      1.99957379267  :
                 :  wavefunction norm =      1.00000000000  :
                  .......................................... 


 orbitals $scfmo  will be written to file mos

    irrep                 17a         18a         19a         20a         21a   
 eigenvalues H         -0.50936    -0.50935    -0.45265    -0.45263    -0.45253
            eV         -13.8604    -13.8603    -12.3172    -12.3168    -12.3141
 occupation              2.0000      2.0000      2.0000      2.0000      2.0000 

    irrep                 22a         23a         24a         25a         26a   
 eigenvalues H          0.10858     0.15086     0.15086     0.15086     0.16832
            eV           2.9546      4.1050      4.1051      4.1051      4.5803
 
 
 
 
 ==============================================================================
                           electrostatic moments
 ==============================================================================

 reference point for electrostatic moments:    0.00000   0.00000   0.00000

 
              nuc           elec       ->  total
 ------------------------------------------------------------------------------
                          charge      
 ------------------------------------------------------------------------------
          42.000000     -42.000000       0.000000
 
 ------------------------------------------------------------------------------
                       dipole moment  
 ------------------------------------------------------------------------------
   x      30.366556     -30.366624      -0.000068
   y      -5.607251       5.607268       0.000016
   z      60.819743     -60.819270       0.000472
 
   | dipole moment | =     0.0005 a.u. =     0.0012 debye 
 
 ------------------------------------------------------------------------------
                     quadrupole moment
 ------------------------------------------------------------------------------
  xx     155.840642    -182.444527     -26.603885
  yy     134.637993    -161.241780     -26.603787
  zz     221.755906    -248.361053     -26.605147
  xy      -4.054977       4.055071       0.000094
  xz      44.008560     -44.007867       0.000692
  yz      -8.126558       8.126387      -0.000171
 
     1/3  trace=     -26.604273
     anisotropy=       0.001810
 
 ==============================================================================
 


    ------------------------------------------------------------------------
         total  cpu-time :  2 hours 31 minutes and 14 seconds
         total wall-time : 10 minutes and 36 seconds
    ------------------------------------------------------------------------

   ****  dscf : all done  ****


    2019-04-01 22:48:22.745 

