           Doing BLAS/Lapack in the master proc. with  8 CPUs.
           SMPCPUS    set: Shared-memory Parallelization with   8 CPUs.

           SMP Parallelization Reference:
           C. van Wullen, J. Comput. Chem. 32 (2011) 1195--1201
 operating system is UNIX !

 ridft (c-18-213.gp.local) : TURBOMOLE V7.2 ( 21454 ) 4 Oct 2017 at 12:48:15
 Copyright (C) 2017 TURBOMOLE GmbH, Karlsruhe


    2018-04-28 20:54:14.645 



                                  r i d f t

                        DFT program with RI approximation 
                                for coulomb part 




                                                 
                                 References:     
                                                 
          TURBOMOLE:                             
              R. Ahlrichs, M. Baer, M. Haeser, H. Horn, and
              C. Koelmel
              Electronic structure calculations on workstation
              computers: the program system TURBOMOLE
              Chem. Phys. Lett. 162: 165 (1989)
          Density Functional:                              
              O. Treutler and R. Ahlrichs                      
              Efficient Molecular Numerical Integration Schemes
              J. Chem. Phys. 102: 346 (1995)                   
          Parallel Version:                                
              Performance of parallel TURBOMOLE for Density    
              Functional Calculations                          
              M. v. Arnim and R. Ahlrichs                      
              J. Comp. Chem. 19: 1746 (1998)                   
          RI-J Method:                                     
              Auxiliary Basis Sets to approximate Coulomb      
              Potentials                                       
              Chem. Phys. Lett. 240: 283 (1995)                
              K. Eichkorn, O. Treutler, H. Oehm, M. Haeser     
              and R. Ahlrichs                                  
              Chem. Phys. Lett. 242: 652 (1995)                
                                                           
              Auxiliary Basis Sets for Main Row Atoms and their
              Use to approximate Coulomb Potentials            
              K. Eichkorn, F. Weigend, O. Treutler and         
              R. Ahlrichs                                      
              Theo. Chem. Acc. 97: 119 (1997)                   
                                                           
              Accurate Coulomb-fitting basis sets for H to Rn 
              F. Weigend                                        
              Phys. Chem. Chem. Phys. 8: 1057 (2006)            
                                                           
          Multipole accelerated RI-J (MARI-J):             
              Fast evaluation of the Coulomb potential for     
              electron densities using multipole accelerated   
              resolution of identity approximation             
              M. Sierka, A. Hogekamp and R. Ahlrichs           
              J. Chem. Phys. 118: 9136 (2003)                  
          RI-JK Method:                                     
              A fully direct RI-HF algorithm: Implementation,
              optimised auxiliary basis sets, demonstration of
              accuracy and efficiency                         
              F. Weigend                                      
              Phys. Chem. Chem. Phys. 4: 4285 (2002)           
          Two-component HF and DFT with spin-orbit coupling:  
              Self-consistent treatment of spin-orbit         
              interactions with efficient Hartree-Fock and    
              density functional methods                      
              M. K. Armbruster, F. Weigend, C. van Wüllen and 
              W. Klopper                                      
              Phys. Chem. Chem. Phys. 10: 1748 (2008)         
          Relativistic all-electron 2c calculations           
              An efficient implementation of two-component    
              relativistic exact-decoupling methods for large 
              molecules                                       
              D. Peng, N. Middendorf, F. Weigend, M. Reiher   
              J. Chem. Phys. 138, 184105 (2013)               
                                         




              +--------------------------------------------------+
              |      general information about current run       |
              +--------------------------------------------------+

 

 DENSITY CONVERGENCE CHECK SWITCHED ON !
 SCF CONVERGENCE IF RMS(delta[D]) <     0.1000000000E-06

 PBE functional
 exchange:    LDA + PBE
 correlation: LDA (PW) + PBE
 A DFT calculation using the RI-J approximation will be carried out.
 Allocatable memory for RI due to $ricore (MB):                  5000


              +--------------------------------------------------+
              | Atomic coordinate, charge and isotop information |
              +--------------------------------------------------+

                    atomic coordinates            atom    charge  isotop
         -0.39453209   -0.40982618   -1.95096453    o      8.000     0
          1.34383326   -0.73111946   -1.46257697    h      1.000     0
         -1.93162773   -1.40061046   -0.01030692    c      6.000     0
         -3.88809486   -1.01800933   -0.50757525    h      1.000     0
         -1.71538636   -3.44275281    0.20510540    h      1.000     0
         -1.55832695   -0.52060957    1.82291575    h      1.000     0
          3.72935655    3.59657218    0.81693084    c      0.000     0
          4.68630182    5.41344764    0.75103541    h      0.000     0
          2.95354059    3.32041540    2.70264440    h      0.000     0
          2.16154942    3.57859470   -0.50872250    h      0.000     0
          5.45964721    1.41405412    0.21993572    c      0.000     0
          4.65803523   -0.70227058   -0.31879031    o      0.000     0
          7.96568280    1.90864132    0.33180630    n      0.000     0
          8.52884471    3.62910116    0.89435356    h      0.000     0
          9.82216115   -0.05688419   -0.08911852    c      0.000     0
          9.14836572   -1.28697746   -1.58611602    h      0.000     0
         11.59920148    0.80015165   -0.65322766    h      0.000     0
         10.12359158   -1.19927448    1.59665994    h      0.000     0
 
       center of nuclear mass  :    4.07713128    0.57285919   -0.16290077
       center of nuclear charge:   -1.14244433   -0.96637574   -0.86731605

              +--------------------------------------------------+
              |               basis set information              |
              +--------------------------------------------------+

              we will work with the 1s 3p 5d 7f 9g ... basis set
              ...i.e. with spherical basis functions...

   type   atoms  prim   cont   basis
   ---------------------------------------------------------------------------
    o        2     77     55   cc-pVQZ   [5s4p3d2f1g|21s6p3d2f1g]
    h       11     32     30   cc-pVQZ   [4s3p2d1f|6s3p2d1f]
    c        4     77     55   cc-pVQZ   [5s4p3d2f1g|21s6p3d2f1g]
    n        1     77     55   cc-pVQZ   [5s4p3d2f1g|21s6p3d2f1g]
   ---------------------------------------------------------------------------
   total:   18    891    715
   ---------------------------------------------------------------------------

   total number of primitive shells          :  111
   total number of contracted shells         :  215
   total number of cartesian basis functions :  875
   total number of SCF-basis functions       :  715


 integral neglect threshold       :  0.38E-13
 integral storage threshold THIZE :  0.10E-04
 integral storage threshold THIME :         5

 RI-J AUXILIARY BASIS SET information:

              we will work with the 1s 3p 5d 7f 9g ... basis set
              ...i.e. with spherical basis functions...

   type   atoms  prim   cont   basis
   ---------------------------------------------------------------------------
    o        2     70     49   cc-pVQZ   [6s4p3d1f1g|12s5p4d2f1g]
    h       11     16     11   cc-pVQZ   [3s1p1d|5s2p1d]
    c        4     70     49   cc-pVQZ   [6s4p3d1f1g|12s5p4d2f1g]
    n        1     70     49   cc-pVQZ   [6s4p3d1f1g|12s5p4d2f1g]
   ---------------------------------------------------------------------------
   total:   18    666    464
   ---------------------------------------------------------------------------

   total number of primitive shells          :   80
   total number of contracted shells         :  160
   total number of cartesian basis functions :  559
   total number of SCF-basis functions       :  464


 symmetry group of the molecule :   c1 

 the group has the following generators :
   c1(z)

    1 symmetry operations found

 there are 1 real representations :   a   

 maximum number of shells which are related by symmetry :  1


    mo occupation :
   irrep   mo's   occupied
    a      715        9
 
 number of basis functions   :                    715
 number of occupied orbitals :                      9
 
  
           ------------------
           density functional
           ------------------
 Dummy atoms with grid-point found.
 DFT quadrature threshold dgrenze tightened by factor 1/10.

 PBE functional
 exchange:    LDA + PBE
 correlation: LDA (PW) + PBE
 Dummy atoms with grid-point found.
 DFT quadrature threshold dgrenze tightened by factor 1/10.

 Dummy atoms with grid-point found.
 DFT quadrature threshold dgrenze tightened by factor 1/10.


 iterations will be done with small grid
  
 spherical integration : Lebedev's spherical grid
 spherical gridsize    :                     5
    i.e. gridpoints    :                   590
 value for diffuse not defined
 radial integration    : Chebyshev 2nd kind (scaling 3)
 radial gridsize       :                     8
 integration cells     :                    18
 partition function    : becke
 partition sharpness   :                     3
  
 found dummy atom(s) with basis: included in dft

 biggest AO integral is expected to be     4.785886462
  
           ------------------------
               RI-J - INFORMATION
           ------------------------
 Contributions to RI integral batches: 
  neglected integral batches:                  6183
  direct contribution:                            0
  memory contribution:                 17037
 Memory core needed for (P|Q) and Cholesky      2 MByte
 Memory core minimum needed except of (P|Q)     3 MByte
 Total minimum memory core needed (sum)         4 MByte
  
 ****************************************
 Memory allocated for RI-J  1153 MByte
 ****************************************
                                            

          ------------------------
          nuclear repulsion energy  :   40.4187622480    
          ------------------------


         -----------------
         -S,T+V- integrals
         -----------------

 1e-integrals will be neglected if expon. factor < 0.381938E-14
 Difference densities >>NOT<< switched on in parallel ridft!

 DIIS switched on: error vector is FDS-SDF
 Max. Iterations for DIIS is     :   4
 DIIS matrix (see manual) 
    Scaling factor of diagonals  :  1.200
    threshold for scaling factor :  0.000

 scf convergence criterion : increment of total energy < .1000000D-08
                  and increment of one-electron energy < .1000000D-05

  MOs are in ASCII format !


 automatic virtual orbital shift switched on 
      shift if e(lumo)-e(homo) < 0.10000000    


 reading orbital data $scfmo  from file mos
 orbital characterization : expanded
 mo provided and orthogonalized by Cholesky decomposition

 DSCF restart information will be dumped onto file mos


 Starting SCF iterations

          Overall gridpoints after grid construction =        103246

 ITERATION  ENERGY          1e-ENERGY        2e-ENERGY     RMS[dD(SAO)]   TOL
   1  -115.17872597573    -236.39139453     80.793906309    0.000D+00 0.381D-13
                            Exc = -15.2571268118     Coul =  96.0510331212    
                              N = 18.000040142    
                            current damping = 0.700
 
          max. resid. norm for Fia-block=  3.220D-01 for orbital      1a         
          max. resid. fock norm         =  2.971D+01 for orbital    662a         

 ITERATION  ENERGY          1e-ENERGY        2e-ENERGY     RMS[dD(SAO)]   TOL
   2  -115.55721264476    -236.62677477     80.650799875    0.166D-02 0.381D-13
                            Exc = -15.2499098065     Coul =  95.9007096816    
                              N = 18.000029449    
                            current damping = 0.650
 
          Norm of current diis error:  1.6320    
          max. resid. norm for Fia-block=  1.392D-01 for orbital      1a         
          max. resid. fock norm         =  1.971D-01 for orbital    604a         

 ITERATION  ENERGY          1e-ENERGY        2e-ENERGY     RMS[dD(SAO)]   TOL
   3  -115.61644275969    -237.22722234     81.192017329    0.894D-03 0.381D-13
                            Exc = -15.3500531517     Coul =  96.5420704810    
                              N = 18.000023587    
                            current damping = 0.600
 
          Norm of current diis error: 0.77006    
          max. resid. norm for Fia-block=  5.619D-02 for orbital      1a         
          max. resid. fock norm         =  5.914D-02 for orbital      1a         

 ITERATION  ENERGY          1e-ENERGY        2e-ENERGY     RMS[dD(SAO)]   TOL
   4  -115.63440679180    -236.95108149     80.897912446    0.588D-03 0.381D-13
                            Exc = -15.3280691433     Coul =  96.2259815891    
                              N = 18.000019321    
                            current damping = 0.650
 
          Norm of current diis error: 0.30256    
          max. resid. norm for Fia-block=  2.103D-02 for orbital      3a         
          max. resid. fock norm         =  3.595D-02 for orbital    597a         

 ITERATION  ENERGY          1e-ENERGY        2e-ENERGY     RMS[dD(SAO)]   TOL
   5  -115.63751069758    -237.24703070     81.190757752    0.247D-03 0.381D-13
                            Exc = -15.3682112132     Coul =  96.5589689657    
                              N = 18.000017246    
                            current damping = 0.700
 
          Norm of current diis error: 0.12634    
          max. resid. norm for Fia-block=  8.724D-03 for orbital      8a         
          max. resid. fock norm         =  1.027D-02 for orbital      8a         
          mo-orthogonalization: Cholesky decomposition

 ITERATION  ENERGY          1e-ENERGY        2e-ENERGY     RMS[dD(SAO)]   TOL
   6  -115.63814574322    -237.14802966     81.091121667    0.162D-03 0.381D-13
                            Exc = -15.3596603559     Coul =  96.4507820227    
                              N = 18.000016323    
                            current damping = 0.750
 
          Norm of current diis error: 0.50587E-01
          max. resid. norm for Fia-block=  3.465D-03 for orbital      1a         
          max. resid. fock norm         =  4.689D-03 for orbital    650a         

 ITERATION  ENERGY          1e-ENERGY        2e-ENERGY     RMS[dD(SAO)]   TOL
   7  -115.63825075228    -237.17476385     81.117750853    0.579D-04 0.381D-13
                            Exc = -15.3634405793     Coul =  96.4811914319    
                              N = 18.000015844    
                            current damping = 0.800
 
          Norm of current diis error: 0.20111E-01
          max. resid. norm for Fia-block=  1.476D-03 for orbital      1a         
          max. resid. fock norm         =  2.275D-03 for orbital    614a         

 ITERATION  ENERGY          1e-ENERGY        2e-ENERGY     RMS[dD(SAO)]   TOL
   8  -115.63826840970    -237.17701198     81.119981324    0.264D-04 0.381D-13
                            Exc = -15.3641902119     Coul =  96.4841715360    
                              N = 18.000015669    
                            current damping = 0.650
 
          Norm of current diis error: 0.92351E-02
          max. resid. norm for Fia-block=  6.571D-04 for orbital      1a         
          max. resid. fock norm         =  8.942D-04 for orbital    614a         

 ITERATION  ENERGY          1e-ENERGY        2e-ENERGY     RMS[dD(SAO)]   TOL
   9  -115.63827246271    -237.17978233     81.122747619    0.132D-04 0.381D-13
                            Exc = -15.3646671662     Coul =  96.4874147853    
                              N = 18.000015566    
                            current damping = 0.500
 
          Norm of current diis error: 0.34720E-02
          max. resid. norm for Fia-block=  2.619D-04 for orbital      1a         
          max. resid. fock norm         =  3.980D-04 for orbital    614a         

 ITERATION  ENERGY          1e-ENERGY        2e-ENERGY     RMS[dD(SAO)]   TOL
  10  -115.63827305969    -237.17871152     81.121676214    0.612D-05 0.381D-13
                            Exc = -15.3646553026     Coul =  96.4863315168    
                              N = 18.000015527    
                            current damping = 0.550
 
          Norm of current diis error: 0.14263E-02
          max. resid. norm for Fia-block=  9.784D-05 for orbital      4a         
          max. resid. fock norm         =  1.535D-04 for orbital    614a         
          mo-orthogonalization: Cholesky decomposition

 ITERATION  ENERGY          1e-ENERGY        2e-ENERGY     RMS[dD(SAO)]   TOL
  11  -115.63827313763    -237.18053521     81.123499826    0.155D-05 0.381D-13
                            Exc = -15.3648783856     Coul =  96.4883782117    
                              N = 18.000015512    
                            current damping = 0.600
 
          Norm of current diis error: 0.57573E-03
          max. resid. norm for Fia-block=  3.899D-05 for orbital      8a         
          max. resid. fock norm         =  4.835D-05 for orbital    410a         

 ITERATION  ENERGY          1e-ENERGY        2e-ENERGY     RMS[dD(SAO)]   TOL
  12  -115.63827315035    -237.17989005     81.122854649    0.851D-06 0.381D-13
                            Exc = -15.3648139581     Coul =  96.4876686076    
                              N = 18.000015507    
                            current damping = 0.650
 
          Norm of current diis error: 0.20224E-03
          max. resid. norm for Fia-block=  1.306D-05 for orbital      3a         
          max. resid. fock norm         =  2.614D-05 for orbital    614a         

 ITERATION  ENERGY          1e-ENERGY        2e-ENERGY     RMS[dD(SAO)]   TOL
  13  -115.63827315164    -237.17995219     81.122916791    0.212D-06 0.381D-13
                            Exc = -15.3648273709     Coul =  96.4877441621    
                              N = 18.000015506    
                            current damping = 0.700
 
          Norm of current diis error: 0.71757E-04
          max. resid. norm for Fia-block=  4.624D-06 for orbital      1a         
          max. resid. fock norm         =  6.584D-06 for orbital    436a         

 DENSITY CONVERGED !


 ITERATION  ENERGY          1e-ENERGY        2e-ENERGY     RMS[dD(SAO)]   TOL
  14  -115.63827315187    -237.17996991     81.122934505    0.949D-07 0.381D-13
                            Exc = -15.3648298468     Coul =  96.4877643520    
                              N = 18.000015505    
                            current damping = 0.550
 
          Norm of current diis error: 0.25169E-04
          max. resid. norm for Fia-block=  1.869D-06 for orbital      1a         
          max. resid. fock norm         =  3.125D-06 for orbital    614a         

 DENSITY CONVERGED !


 ITERATION  ENERGY          1e-ENERGY        2e-ENERGY     RMS[dD(SAO)]   TOL
  15  -115.63827315190    -237.17998048     81.122945080    0.404D-07 0.381D-13
                            Exc = -15.3648315206     Coul =  96.4877766004    
                              N = 18.000015505    
                            current damping = 0.400
 
          Norm of current diis error: 0.87967E-05
          max. resid. norm for Fia-block=  6.924D-07 for orbital      8a         
          max. resid. fock norm         =  1.221D-06 for orbital    410a         
          mo-orthogonalization: Cholesky decomposition

 ENERGY & DENSITY CONVERGED !

          Overall gridpoints after grid construction =        273509

 ITERATION  ENERGY          1e-ENERGY        2e-ENERGY     RMS[dD(SAO)]   TOL
  16  -115.63827669281    -237.17997251     81.122933570    0.187D-07 0.381D-13
                            Exc = -15.3648344184     Coul =  96.4877679885    
                              N = 17.999997827    
                            current damping = 0.450
 
          Norm of current diis error: 0.51675E-05
          max. resid. norm for Fia-block=  3.477D-07 for orbital      5a         
          max. resid. fock norm         =  5.734D-07 for orbital    614a         

 End of SCF iterations

   convergence criteria satisfied after    16 iterations


                  ------------------------------------------ 
                 |  total energy      =   -115.63827669281  |
                  ------------------------------------------ 
                 :  kinetic energy    =    115.20511850578  :
                 :  potential energy  =   -230.84339519859  :
                 :  virial theorem    =      1.99625419714  :
                 :  wavefunction norm =      1.00000000000  :
                  .......................................... 


 <geterg> : there is no data group $energy 


 <skperg> : $end is missing 


 orbitals $scfmo  will be written to file mos

    irrep                  5a          6a          7a          8a          9a   
 eigenvalues H         -0.46062    -0.39089    -0.38124    -0.29450    -0.22980
            eV         -12.5341    -10.6368    -10.3740     -8.0139     -6.2533
 occupation              2.0000      2.0000      2.0000      2.0000      2.0000 

    irrep                 10a         11a         12a         13a         14a   
 eigenvalues H         -0.01260     0.03127     0.05418     0.06388     0.07955
            eV          -0.3428      0.8510      1.4744      1.7382      2.1648
 
 
 
 
 ==============================================================================
                           electrostatic moments
 ==============================================================================

 reference point for electrostatic moments:    0.00000   0.00000   0.00000

 
              nuc           elec       ->  total
 ------------------------------------------------------------------------------
                          charge      
 ------------------------------------------------------------------------------
          18.000000     -18.000000      -0.000000
 
 ------------------------------------------------------------------------------
                       dipole moment  
 ------------------------------------------------------------------------------
   x     -20.563998      20.783157       0.219159
   y     -17.394763      17.106086      -0.288677
   z     -15.611689      16.110201       0.498512
 
   | dipole moment | =     0.6163 a.u. =     1.5666 debye 
 
 ------------------------------------------------------------------------------
                     quadrupole moment
 ------------------------------------------------------------------------------
  xx      45.926461     -54.303964      -8.377502
  yy      26.808378     -36.834252     -10.025874
  zz      36.212592     -48.023233     -11.810641
  xy      27.218810     -27.237494      -0.018684
  xz       3.092707      -3.801069      -0.708362
  yz       6.413947      -6.346432       0.067515
 
     1/3  trace=     -10.071339
     anisotropy=       3.219400
 
 ==============================================================================
 


    ------------------------------------------------------------------------
         total  cpu-time :  5 minutes and 50 seconds
         total wall-time :  55.07 seconds
    ------------------------------------------------------------------------

   ****  ridft : all done  ****


    2018-04-28 20:55:09.704 

