
   OpenMP run-time library returned nthreads = 28
 operating system is UNIX !

 dscf (c-16-18) : TURBOMOLE V7.3 ( 22142 ) 4 Jul 2018 at 18:12:42
 Copyright (C) 2018 TURBOMOLE GmbH, Karlsruhe


    2019-04-01 22:06:46.643 



                             d s c f - program

                   idea & directorship : reinhart ahlrichs
                   program development : marco haeser
                                         michael baer
                           dft version : oliver treutler


                          quantum chemistry group
                          universitaet  karlsruhe
                                  germany




                          References             
                                                 
          TURBOMOLE:                             
              R. Ahlrichs, M. Baer, M. Haeser, H. Horn, and
              C. Koelmel
              Electronic structure calculations on workstation
              computers: the program system TURBOMOLE
              Chem. Phys. Lett. 162: 165 (1989)
          Density Functional:                              
              O. Treutler and R. Ahlrichs                      
              Efficient Molecular Numerical Integration Schemes
              J. Chem. Phys. 102: 346 (1995)                   
          Parallel Version:                                
              Performance of parallel TURBOMOLE for Density    
              Functional Calculations                          
              M. v. Arnim and R. Ahlrichs                      
              J. Comp. Chem. 19: 1746 (1998)                   
                                         




              +--------------------------------------------------+
              | Atomic coordinate, charge and isotop information |
              +--------------------------------------------------+

                    atomic coordinates            atom    charge  isotop
          1.54720758    1.63304905    0.35580919    c      6.000     0
          2.77055320    3.24403175    0.65142905    h      1.000     0
          2.58702963   -0.73798330   -0.12604130    c      6.000     0
          4.61666967   -0.96727888   -0.20895541    h      1.000     0
          1.00982921   -2.81284449   -0.51379393    c      6.000     0
          1.81574005   -4.65168223   -0.89857893    h      1.000     0
         -1.60459596   -2.51429450   -0.41554404    c      6.000     0
         -2.82905121   -4.12311840   -0.71725162    h      1.000     0
         -2.64464424   -0.14367626    0.07640950    c      6.000     0
         -4.67270062    0.08486340    0.17646651    h      1.000     0
         -1.06824764    1.93017262    0.45784135    c      6.000     0
         -1.87566028    3.76747387    0.84330572    h      1.000     0
         -4.53237960    0.30640185    6.65261336    n      0.000     0
         -3.37041359    2.49407696    7.18185798    c      0.000     0
         -4.59420790    4.10633735    7.48896132    h      0.000     0
         -0.75840598    2.76024061    7.35225612    c      0.000     0
          0.05766991    4.58127542    7.78919160    h      0.000     0
          0.75517280    0.64945563    6.94745050    c      0.000     0
          2.79148341    0.78246264    7.05107270    h      0.000     0
         -0.41750035   -1.63457138    6.39251432    c      0.000     0
          0.67055579   -3.32705146    6.04466310    h      0.000     0
         -3.04519152   -1.70645256    6.26883284    c      0.000     0
         -4.00678419   -3.46097517    5.83638286    h      0.000     0
 
       center of nuclear mass  :   -0.97302812    0.02120287    3.40687820
       center of nuclear charge:   -0.02892804   -0.44093266   -0.02727381

              +--------------------------------------------------+
              |               basis set information              |
              +--------------------------------------------------+

              we will work with the 1s 3p 5d 7f 9g ... basis set
              ...i.e. with spherical basis functions...

   type   atoms  prim   cont   basis
   ---------------------------------------------------------------------------
    c       11     50     30   cc-pVTZ   [4s3p2d1f|18s5p2d1f]
    h       11     16     14   cc-pVTZ   [3s2p1d|5s2p1d]
    n        1     50     30   cc-pVTZ   [4s3p2d1f|18s5p2d1f]
   ---------------------------------------------------------------------------
   total:   23    776    514
   ---------------------------------------------------------------------------

   total number of primitive shells          :   60
   total number of contracted shells         :  186
   total number of cartesian basis functions :  585
   total number of SCF-basis functions       :  514


 integral neglect threshold       :  0.57E-13
 integral storage threshold THIZE :  0.10E-04
 integral storage threshold THIME :         5


 DENSITY CONVERGENCE CHECK SWITCHED ON !
 SCF CONVERGENCE IF RMS(delta[D]) <     0.1000000000E-06


 symmetry group of the molecule :   c1 

 the group has the following generators :
   c1(z)

    1 symmetry operations found

 there are 1 real representations :   a   

 maximum number of shells which are related by symmetry :  1


    mo occupation :
   irrep   mo's   occupied
    a      514       21
 
 number of basis functions   :                    514
 number of occupied orbitals :                     21
 

 automatic virtual orbital shift switched on 
      shift if e(lumo)-e(homo) < 0.10000000    


          ------------------------
          nuclear repulsion energy  :   203.684223815    
          ------------------------


         -----------------
         -S,T+V- integrals
         -----------------

 1e-integrals will be neglected if expon. factor < 0.571275E-14
 
   Difference densities algorithm switched on.
   The maximal number of linear combinations of
   difference densities is                    20 .

 DIIS switched on: error vector is FDS-SDF
 Max. Iterations for DIIS is     :   5
 DIIS matrix (see manual) 
    Scaling factor of diagonals  :  1.200
    threshold for scaling factor :  0.000

 scf convergence criterion : increment of total energy < .1000000D-08
                  and increment of one-electron energy < .1000000D-05

  MOs are in ASCII format !


 reading orbital data $scfmo  from file mos
 orbital characterization : scfconv=9

 DSCF restart information will be dumped onto file mos

 
                                              current damping :  0.700
 ITERATION  ENERGY          1e-ENERGY        2e-ENERGY     RMS[dD(SAO)]   TOL
   1  -230.73115438262    -714.76523298     280.34985479    0.000D+00 0.570D-13
          max. resid. norm for Fia-block=  9.418D-02 for orbital      6a         
          max. resid. fock norm         =  2.330D-01 for orbital    341a         
          Delta Eig. =    20.8288548098 eV 
 
                                              current damping :  0.650
 ITERATION  ENERGY          1e-ENERGY        2e-ENERGY     RMS[dD(SAO)]   TOL
   2  -230.77006544488    -713.88477397     279.43048471    0.635D-03 0.363D-13
          Norm of current diis error: 0.41851    
          max. resid. norm for Fia-block=  4.561D-02 for orbital      6a         
          max. resid. fock norm         =  1.163D-01 for orbital    496a         
          Delta Eig. =     9.7696015349 eV 
 
                                              current damping :  0.600
 ITERATION  ENERGY          1e-ENERGY        2e-ENERGY     RMS[dD(SAO)]   TOL
   3  -230.77788684919    -713.99235933     279.53024866    0.314D-03 0.275D-13
          Norm of current diis error: 0.18673    
          max. resid. norm for Fia-block=  1.881D-02 for orbital      6a         
          max. resid. fock norm         =  3.919D-02 for orbital    458a         
          Delta Eig. =     3.7371717250 eV 
 
                                              current damping :  0.650
 ITERATION  ENERGY          1e-ENERGY        2e-ENERGY     RMS[dD(SAO)]   TOL
   4  -230.77952379524    -713.90713056     279.44338295    0.140D-03 0.242D-13
          Norm of current diis error: 0.75278E-01
          max. resid. norm for Fia-block=  7.049D-03 for orbital      6a         
          max. resid. fock norm         =  1.358D-02 for orbital    437a         
          Delta Eig. =     1.3734862608 eV 
 
                                              current damping :  0.500
 ITERATION  ENERGY          1e-ENERGY        2e-ENERGY     RMS[dD(SAO)]   TOL
   5  -230.77978828635    -713.89298951     279.42897741    0.558D-04 0.223D-13
          Norm of current diis error: 0.31660E-01
          max. resid. norm for Fia-block=  2.730D-03 for orbital      6a         
          max. resid. fock norm         =  5.734D-03 for orbital    464a         
 mo-orthogonalization: Cholesky decomposition
          Delta Eig. =     0.5884371408 eV 
 
                                              current damping :  0.350
 ITERATION  ENERGY          1e-ENERGY        2e-ENERGY     RMS[dD(SAO)]   TOL
   6  -230.77983848298    -713.88465576     279.42059346    0.258D-04 0.207D-13
          Norm of current diis error: 0.11485E-01
          max. resid. norm for Fia-block=  1.003D-03 for orbital     14a         
          max. resid. fock norm         =  1.909D-03 for orbital    467a         
          Delta Eig. =     0.2160912710 eV 
 
                                              current damping :  0.200
 ITERATION  ENERGY          1e-ENERGY        2e-ENERGY     RMS[dD(SAO)]   TOL
   7  -230.77984565501    -713.88109452     279.41702505    0.106D-04 0.191D-13
          Norm of current diis error: 0.33869E-02
          max. resid. norm for Fia-block=  3.065D-04 for orbital     14a         
          max. resid. fock norm         =  4.843D-04 for orbital    467a         
          Delta Eig. =     0.0636416328 eV 
 
                                              current damping :  0.050
 ITERATION  ENERGY          1e-ENERGY        2e-ENERGY     RMS[dD(SAO)]   TOL
   8  -230.77984634852    -713.88031249     279.41624233    0.367D-05 0.176D-13
          Norm of current diis error: 0.73944E-03
          max. resid. norm for Fia-block=  6.636D-05 for orbital     14a         
          max. resid. fock norm         =  8.131D-05 for orbital    467a         
          Delta Eig. =     0.0116513036 eV 
 
                                              current damping :  0.050
 ITERATION  ENERGY          1e-ENERGY        2e-ENERGY     RMS[dD(SAO)]   TOL
   9  -230.77984638867    -713.87992426     279.41585406    0.104D-05 0.162D-13
          Norm of current diis error: 0.12049E-03
          max. resid. norm for Fia-block=  1.083D-05 for orbital     14a         
          max. resid. fock norm         =  1.084D-05 for orbital     14a         
          Delta Eig. =     0.0006857721 eV 
 
                                              current damping :  0.100
 ITERATION  ENERGY          1e-ENERGY        2e-ENERGY     RMS[dD(SAO)]   TOL
  10  -230.77984639001    -713.87997599     279.41590578    0.210D-06 0.155D-13
          Norm of current diis error: 0.33544E-04
          max. resid. norm for Fia-block=  3.817D-06 for orbital     17a         
          max. resid. fock norm         =  3.820D-06 for orbital     17a         
 mo-orthogonalization: Cholesky decomposition
          Delta Eig. =     0.0000858443 eV 

 DENSITY CONVERGED !

 
                                              current damping :  0.150
 ITERATION  ENERGY          1e-ENERGY        2e-ENERGY     RMS[dD(SAO)]   TOL
  11  -230.77984639012    -713.87992607     279.41585586    0.609D-07 0.150D-13
          Norm of current diis error: 0.13363E-04
          max. resid. norm for Fia-block=  1.125D-06 for orbital     20a         
          max. resid. fock norm         =  1.125D-06 for orbital     20a         
          Delta Eig. =     0.0000373398 eV 

 DENSITY CONVERGED !

 
                                              current damping :  0.200
 ITERATION  ENERGY          1e-ENERGY        2e-ENERGY     RMS[dD(SAO)]   TOL
  12  -230.77984639014    -713.87994427     279.41587406    0.174D-07 0.147D-13
          Norm of current diis error: 0.53270E-05
          max. resid. norm for Fia-block=  7.186D-07 for orbital     20a         
          max. resid. fock norm         =  7.188D-07 for orbital     20a         
          Delta Eig. =     0.0000062940 eV 

 ENERGY & DENSITY CONVERGED !

 
                                              current damping :  0.250
 ITERATION  ENERGY          1e-ENERGY        2e-ENERGY     RMS[dD(SAO)]   TOL
  13  -230.77984639015    -713.87994106     279.41587085    0.739D-08 0.163D-13
          max. resid. norm for Fia-block=  3.004D-07 for orbital     21a         
          max. resid. fock norm         =  3.004D-07 for orbital     21a         

 convergence criteria satisfied after    13 iterations


                  ------------------------------------------ 
                 |  total energy      =   -230.77984639015  |
                  ------------------------------------------ 
                 :  kinetic energy    =    230.45003359450  :
                 :  potential energy  =   -461.22987998465  :
                 :  virial theorem    =      1.99857087696  :
                 :  wavefunction norm =      1.00000000000  :
                  .......................................... 


 orbitals $scfmo  will be written to file mos

    irrep                 17a         18a         19a         20a         21a   
 eigenvalues H         -0.50120    -0.49381    -0.49341    -0.33571    -0.33561
            eV         -13.6386    -13.4373    -13.4266     -9.1353     -9.1325
 occupation              2.0000      2.0000      2.0000      2.0000      2.0000 

    irrep                 22a         23a         24a         25a         26a   
 eigenvalues H          0.07781     0.11379     0.11914     0.12799     0.12957
            eV           2.1174      3.0964      3.2421      3.4827      3.5257
 
 
 
 
 ==============================================================================
                           electrostatic moments
 ==============================================================================

 reference point for electrostatic moments:    0.00000   0.00000   0.00000

 
              nuc           elec       ->  total
 ------------------------------------------------------------------------------
                          charge      
 ------------------------------------------------------------------------------
          42.000000     -42.000000      -0.000000
 
 ------------------------------------------------------------------------------
                       dipole moment  
 ------------------------------------------------------------------------------
   x      -1.214978       1.218873       0.003896
   y     -18.519172      18.518949      -0.000223
   z      -1.145500       1.126946      -0.018554
 
   | dipole moment | =     0.0190 a.u. =     0.0482 debye 
 
 ------------------------------------------------------------------------------
                     quadrupole moment
 ------------------------------------------------------------------------------
  xx     190.540397    -214.196196     -23.655799
  yy     191.447377    -215.361214     -23.913837
  zz       7.299850     -37.335122     -30.035272
  xy       1.054295      -1.039347       0.014948
  xz      -3.081371       2.965289      -0.116082
  yz      36.865664     -35.594957       1.270707
 
     1/3  trace=     -25.868303
     anisotropy=       6.633499
 
 ==============================================================================
 


    ------------------------------------------------------------------------
         total  cpu-time : 55 minutes and 47 seconds
         total wall-time :  2 minutes and 44 seconds
    ------------------------------------------------------------------------

   ****  dscf : all done  ****


    2019-04-01 22:09:30.845 

