
   OpenMP run-time library returned nthreads = 28

 ricc2 (c-19-413) : TURBOMOLE V7.3 ( 22142 ) 4 Jul 2018 at 18:12:42
 Copyright (C) 2018 TURBOMOLE GmbH, Karlsruhe


    2019-04-02 15:46:42.937 



                              R I C C 2 - PROGRAM

                          the quantum chemistry groups
                             at the universities in
                           Karlsruhe, Bochum & Mainz
                                   Germany



   *-----------------------------------------------------------------------*
   |                     program will use 28 thread(s)                     |
   *-----------------------------------------------------------------------*


              +--------------------------------------------------+
              | Atomic coordinate, charge and isotop information |
              +--------------------------------------------------+

                    atomic coordinates            atom    charge  isotop
         -1.20685731    0.88990297    0.08422222    n      7.000     0
          0.35896172   -0.21531003   -0.01091053    h      1.000     0
         -2.45753015    0.15355310   -1.15966536    h      1.000     0
         -2.26513690    0.73963612    2.63039786    c      6.000     0
         -3.95470126    1.90719611    2.74608859    h      1.000     0
         -2.76418842   -1.16377587    3.26819100    h      1.000     0
         -0.90758924    1.50927685    3.97047959    h      1.000     0
          4.53325169   -0.86081022    0.37236018    n      7.000     0
          5.09311834   -0.34200909   -1.38127779    h      1.000     0
          5.71158979   -2.27374015    0.89240310    h      1.000     0
          4.83604246    1.28442690    2.09895627    c      6.000     0
          4.32545678    0.68973806    3.99936523    h      1.000     0
          6.73977205    2.08146909    2.16882273    h      1.000     0
          3.52733080    2.76932736    1.54591423    h      1.000     0
 
       center of nuclear mass  :    1.50153535    0.48096472    1.27774174
       center of nuclear charge:    1.51062263    0.48510424    1.32254479

              +--------------------------------------------------+
              |               basis set information              |
              +--------------------------------------------------+

              we will work with the 1s 3p 5d 7f 9g ... basis set
              ...i.e. with spherical basis functions...

   type   atoms  prim   cont   basis
   ---------------------------------------------------------------------------
    n        2     50     30   cc-pVTZ   [4s3p2d1f|18s5p2d1f]
    h       10     16     14   cc-pVTZ   [3s2p1d|5s2p1d]
    c        2     50     30   cc-pVTZ   [4s3p2d1f|18s5p2d1f]
   ---------------------------------------------------------------------------
   total:   14    360    260
   ---------------------------------------------------------------------------

   total number of primitive shells          :   60
   total number of contracted shells         :  100
   total number of cartesian basis functions :  290
   total number of SCF-basis functions       :  260


 symmetry group of the molecule :   c1 

 the group has the following generators :
   c1(z)

    1 symmetry operations found

 there are 1 real representations :   a   


   =========================================================================


     restricted closed shell calculation for the wavefunction models:
               MP2        - Second Order Moeller Plesset PT


     global parameters for ricc2 program:

        hard restart (reuse of interm.) :  disabled
        soft restart (reuse of vectors) :  disabled
        threshold for vector function   :    0.100000E-05
        convergence threshold energy    :    0.100000E-06
        linear dependence threshold     :    0.100000E-13
        global print level              :      1
        maximum number of iterations    :   300
        maximum number DIIS vectors     :    10
        max. dim. of reduced space      :   100
        core memory limit (MB)          : 84000


     MP2 energy only: Energy will be calculated directly from T2 amplitudes!

     Scratch Directory : 


   =========================================================================

    der. integral neglect threshold  :  0.10E-07
    integral neglect threshold       :  0.11E-10
    integral storage threshold THIZE :  0.10E-04
    integral storage threshold THIME :         5


                  +------------------------------------------+
                  |     Auxiliary basis set information      |
                  +------------------------------------------+

              we will work with the 1s 3p 5d 7f 9g ... basis set
              ...i.e. with spherical basis functions...

   type   atoms  prim   cont   basis
   ---------------------------------------------------------------------------
    n        2     81     81   cc-pVTZ   [8s6p5d3f1g|8s6p5d3f1g]
    h       10     30     30   cc-pVTZ   [4s3p2d1f|4s3p2d1f]
    c        2     81     81   cc-pVTZ   [8s6p5d3f1g|8s6p5d3f1g]
   ---------------------------------------------------------------------------
   total:   14    624    624
   ---------------------------------------------------------------------------

   total number of primitive shells          :   56
   total number of contracted shells         :  192
   total number of cartesian basis functions :  754
   total number of SCF-basis functions       :  624


 maximum number of shells which are related by symmetry :  1


 The symmetry information takes   1 MB

*---------------------------------------------------------------------*
|               simplified C1 algorithm will be applied               |
*---------------------------------------------------------------------*
  MOs are in ASCII format !


 reading orbital data $scfmo  from file mos
 orbital characterization : scfconv=9



              +--------------------------------------------+
              | list of orbitals that will be kept frozen: |
              +--------------------------------------------+
              |   irrep   index      energy     occ/vir    |
              +--------------------------------------------+
              |   a         1      -15.5442     occupied   |
              |   a         2      -15.5136     occupied   |
              |   a         3      -11.2400     occupied   |
              |   a         4      -11.2262     occupied   |
              +--------------------------------------------+



   Molecular Orbital Statistic:
   ============================

   -----------------------------
   orbitals in total:
   -----------------------------
    frozen occupied :      4
    active occupied :     14
    active virtual  :    242
    frozen virtual  :      0
    all together    :    260
   -----------------------------


     time in riccmos       cpu:  2.11 sec    wall:  0.08 sec    ratio: 28.2

     total memory allocated for calculation of (Q|P)**(-1/2) : 5 MiB


     calculation of (P|Q) ...
     time in lp2sym        cpu:  0.43 sec    wall:  0.02 sec    ratio: 28.7


     calculation of the Cholesky decomposition of (P|Q)**(-1) ...
     time in invmetri      cpu:  1.02 sec    wall:  0.04 sec    ratio: 23.8

   threshold for RMS(d[D]) in SCF was     :  0.10E-06
   integral neglect threshold             :  0.11E-10
   derivative integral neglect threshold  :  0.10E-07


   =========================================================================

     Energy of reference wave function is  -190.5089837005000
     Maximum orbital residual is           0.6430437009584E-07


     Number of symmetry-nonredundant auxiliary basis functions:      624

     Block lengths for integral files:
        frozen occupied (BOI):        1 MiB
        active occupied (BJI):        1 MiB
        active virtual  (BAI):        2 MiB
        frozen virtual  (BGI):        0 MiB
               general  (BTI):        2 MiB

   =========================================================================




   **************************************************************************
   *                                                                        *
   *          OPTIMIZATION OF THE GROUND STATE CLUSTER AMPLITUDES           *
   *                                                                        *
   **************************************************************************


   Iter.   MP2 energy       Norm(Omega)   Norm(t1)  Norm(t2)     cpu    wall
   ...........................................................................
    1   -191.3234702645     ------          0.00000   0.29500    0.03    0.00
   ...........................................................................


     time in total         cpu:  1.81 sec    wall:  0.08 sec    ratio: 22.3


     **********************************************************************
     *                                                                    *
     *   RHF  energy                             :   -190.5089837005      *
     *   MP2 correlation energy (doubles)        :     -0.8144865640      *
     *                                                                    *
     *   Final MP2 energy                        :   -191.3234702645      *
     *                                                                    *
     *    E(S)   =     -0.5449235637      E(T)   =     -0.2695630004      *
     *    E(OS)  =     -0.6347778971      E(SS)  =     -0.1797086669      *
     *                                                                    *
     *   SCS-MP2 energy                          :   -191.3306200660      *
     *   (computed with  C(OS) =   1.2000  and  C(SS) =   0.3333)         *
     *                                                                    *
     *   SOS-MP2 energy                          :   -191.3341949668      *
     *   (computed with  C(OS) =   1.3000)                                *
     *                                                                    *
     *   Norm of MP1 T2 amplitudes               :      0.2949990078      *
     *                                                                    *
     **********************************************************************



    ------------------------------------------------------------------------
         total  cpu-time :  13.30 seconds
         total wall-time :   0.53 seconds
    ------------------------------------------------------------------------

   ****  ricc2 : all done  ****


    2019-04-02 15:46:43.445 

