STARTING ridft ON 16 PROCESSORS!
RUNNING PROGRAM /sopt/TURBOMOLE/7.3-official/bin/em64t-unknown-linux-gnu_smp/ridft_mpi.
           SMPCPUS    set: Shared-memory Parallelization with  16 CPUs.

           SMP Parallelization Reference:
           C. van Wullen, J. Comput. Chem. 32 (2011) 1195--1201
 operating system is UNIX !

 ridft (c-16-23) : TURBOMOLE V7.3 ( 22118 ) 1 Jul 2018 at 20:38:15
 Copyright (C) 2018 TURBOMOLE GmbH, Karlsruhe


    2019-03-12 22:55:30.349 



                                  r i d f t

                        DFT program with RI approximation 
                                for coulomb part 




                                                 
                                 References:     
                                                 
          TURBOMOLE:                             
              R. Ahlrichs, M. Baer, M. Haeser, H. Horn, and
              C. Koelmel
              Electronic structure calculations on workstation
              computers: the program system TURBOMOLE
              Chem. Phys. Lett. 162: 165 (1989)
          Density Functional:                              
              O. Treutler and R. Ahlrichs                      
              Efficient Molecular Numerical Integration Schemes
              J. Chem. Phys. 102: 346 (1995)                   
          Parallel Version:                                
              Performance of parallel TURBOMOLE for Density    
              Functional Calculations                          
              M. v. Arnim and R. Ahlrichs                      
              J. Comp. Chem. 19: 1746 (1998)                   
          RI-J Method:                                     
              Auxiliary Basis Sets to approximate Coulomb      
              Potentials                                       
              Chem. Phys. Lett. 240: 283 (1995)                
              K. Eichkorn, O. Treutler, H. Oehm, M. Haeser     
              and R. Ahlrichs                                  
              Chem. Phys. Lett. 242: 652 (1995)                
                                                           
              Auxiliary Basis Sets for Main Row Atoms and their
              Use to approximate Coulomb Potentials            
              K. Eichkorn, F. Weigend, O. Treutler and         
              R. Ahlrichs                                      
              Theo. Chem. Acc. 97: 119 (1997)                   
                                                           
              Accurate Coulomb-fitting basis sets for H to Rn 
              F. Weigend                                        
              Phys. Chem. Chem. Phys. 8: 1057 (2006)            
                                                           
          Multipole accelerated RI-J (MARI-J):             
              Fast evaluation of the Coulomb potential for     
              electron densities using multipole accelerated   
              resolution of identity approximation             
              M. Sierka, A. Hogekamp and R. Ahlrichs           
              J. Chem. Phys. 118: 9136 (2003)                  
          RI-JK Method:                                     
              A fully direct RI-HF algorithm: Implementation,
              optimised auxiliary basis sets, demonstration of
              accuracy and efficiency                         
              F. Weigend                                      
              Phys. Chem. Chem. Phys. 4: 4285 (2002)           
          Two-component HF and DFT with spin-orbit coupling:  
              Self-consistent treatment of spin-orbit         
              interactions with efficient Hartree-Fock and    
              density functional methods                      
              M. K. Armbruster, F. Weigend, C. van Wüllen and 
              W. Klopper                                      
              Phys. Chem. Chem. Phys. 10: 1748 (2008)         
          Two-component difference density and DIIS algorithm 
              Efficient two-component self-consistent field   
              procedures and gradients: implementation in     
              TURBOMOLE and application to Au20-              
              A. Baldes, F. Weigend                           
              Mol. Phys. 111: 2617 (2013)                     
          Relativistic all-electron 2c calculations           
              An efficient implementation of two-component    
              relativistic exact-decoupling methods for large 
              molecules                                       
              D. Peng, N. Middendorf, F. Weigend, M. Reiher   
              J. Chem. Phys. 138: 184105 (2013)               
          Finite nucleus model and SNSO approximation         
              Efficient implementation of one- and two-       
              component analytical energy gradients in exact  
              two-component theory                            
              Y. J. Franzke, N. Middendorf, F. Weigend        
              J. Chem. Phys. 148: 104110 (2018)               
                                         




              +--------------------------------------------------+
              |      general information about current run       |
              +--------------------------------------------------+

 
 PBE functional
 exchange:    LDA + PBE
 correlation: LDA (PW) + PBE
 A DFT calculation using the RI-J approximation will be carried out.
 Allocatable memory for RI due to $ricore (MB):                  5000


              +--------------------------------------------------+
              | Atomic coordinate, charge and isotop information |
              +--------------------------------------------------+

                    atomic coordinates            atom    charge  isotop
          0.89164086   -0.01144831   10.47233114    c      6.000     0
          1.10973424   -0.01036325   12.46601833    h      1.000     0
          0.64206518   -0.01248716    8.19285409    c      6.000     0
          0.41879760   -0.01199125    6.18123028    h      1.000     0
 
       center of nuclear mass  :    0.76665272   -0.01190654    9.33189827
       center of nuclear charge:    0.76648343   -0.01185481    9.33131143

              +--------------------------------------------------+
              |               basis set information              |
              +--------------------------------------------------+

              we will work with the 1s 3p 5d 7f 9g ... basis set
              ...i.e. with spherical basis functions...

   type   atoms  prim   cont   basis
   ---------------------------------------------------------------------------
    c        2     68     48   def2-QZVP   [7s4p3d2f|15s8p3d2f]
    h        2     26     23   def2-QZVP   [4s3p2d|7s3p2d]
   ---------------------------------------------------------------------------
   total:    4    188    142
   ---------------------------------------------------------------------------

   total number of primitive shells          :   40
   total number of contracted shells         :   50
   total number of cartesian basis functions :  164
   total number of SCF-basis functions       :  142


 integral neglect threshold       :  0.20E-10
 integral storage threshold THIZE :  0.10E-04
 integral storage threshold THIME :         5

 RI-J AUXILIARY BASIS SET information:

              we will work with the 1s 3p 5d 7f 9g ... basis set
              ...i.e. with spherical basis functions...

   type   atoms  prim   cont   basis
   ---------------------------------------------------------------------------
    c        2     70     49   def2-QZVP   [6s4p3d1f1g|12s5p4d2f1g]
    h        2     16     11   def2-QZVP   [3s1p1d|5s2p1d]
   ---------------------------------------------------------------------------
   total:    4    172    120
   ---------------------------------------------------------------------------

   total number of primitive shells          :   32
   total number of contracted shells         :   40
   total number of cartesian basis functions :  146
   total number of SCF-basis functions       :  120


 symmetry group of the molecule :   c1 

 the group has the following generators :
   c1(z)

    1 symmetry operations found

 there are 1 real representations :   a   

 maximum number of shells which are related by symmetry :  1


    mo occupation :
   irrep   mo's   occupied
    a      142        7
 
 number of basis functions   :                    142
 number of occupied orbitals :                      7
 
  
           ------------------
           density functional
           ------------------
 PBE functional
 exchange:    LDA + PBE
 correlation: LDA (PW) + PBE

 iterations will be done with small grid
  
 spherical integration : Lebedev's spherical grid
 spherical gridsize    :                     4
    i.e. gridpoints    :                   434
 value for diffuse not defined
 radial integration    : Chebyshev 2nd kind (scaling 3)
 radial gridsize       :                     6
 integration cells     :                     4
 partition function    : becke
 partition sharpness   :                     3
  

 biggest AO integral is expected to be     5.262544080
  
           ------------------------
               RI-J - INFORMATION
           ------------------------
 Contributions to RI integral batches: 
  neglected integral batches:                    31
  direct contribution:                            0
  memory contribution:                  1244
 Memory core needed for (P|Q) and Cholesky      1 MByte
 Memory core minimum needed except of (P|Q)     1 MByte
 Total minimum memory core needed (sum)         1 MByte
  
 ****************************************
 Memory allocated for RI-J    16 MByte
 ****************************************
                                            

          ------------------------
          nuclear repulsion energy  :   24.5991589892    
          ------------------------

  _________________________________
 |                                 |
 |         DFTD3 V3.1 Rev 0        |
 | S.Grimme, University Bonn       |
 |            June  2014           |
 |   see standalone version        |
 |       dftd3 -h for options      |
 |_________________________________|
 
 Please cite DFT-D3 work done with this code as:
 S. Grimme, J. Antony, S. Ehrlich and H. Krieg,
 J. Chem. Phys, 132 (2010), 154104.
 If used with BJ-damping cite also
 S. Grimme, S. Ehrlich and L. Goerigk,
 J. Comput. Chem. 32 (2011), 1456-1465
 For DFT-D2 the reference is
 S. Grimme, J. Comput. Chem., 27 (2006), 1787-1799
 
C6 coefficients used:
                     2  C6 for element                      1
Z=  1 CN= 0.912     C6(AA)=    3.03
Z=  1 CN= 0.000     C6(AA)=    7.59
                     5  C6 for element                      6
Z=  6 CN= 0.000     C6(AA)=   49.11
Z=  6 CN= 0.987     C6(AA)=   43.25
Z=  6 CN= 1.998     C6(AA)=   29.36
Z=  6 CN= 2.999     C6(AA)=   25.78
Z=  6 CN= 3.984     C6(AA)=   18.21

#           XYZ [au]              R0(AA) [Ang.]  CN          C6(AA)     C8(AA)   C10(AA) [au]
  1   0.89164  -0.01145  10.47233   c   0.610  1.998        29.5       853.0     30221.3
  2   1.10973  -0.01036  12.46602   h   0.395  0.999         3.1        37.4       553.4
  3   0.64207  -0.01249   8.19285   c   0.610  1.998        29.5       853.1     30223.0
  4   0.41880  -0.01199   6.18123   h   0.395  0.998         3.1        37.4       553.4

molecular C6(AA) [au] =       206.68

           DFT-D V3(BJ)
 DF pbe                                               
 parameters
 s6       :    1.0000
 s8       :    0.7875
 a1       :    0.4289
 a2       :    4.4407
 k1-k3    :   16.0000    1.3333   -4.0000
 
 Edisp /kcal,au:    -0.8229 -0.00131136

 E6    /kcal :    -0.5806
 E8    /kcal :    -0.2423
 % E8        : 29.45
 nuclear repulsion energy                  =      24.599158989
 empirical dispersive energy correction    =      -0.001311361
 nuclear repulsion + dispersion correction =      24.597847628


         -----------------
         -S,T+V- integrals
         -----------------

 1e-integrals will be neglected if expon. factor < 0.203778E-11
 Difference densities >>NOT<< switched on in parallel ridft!

 DIIS switched on: error vector is FDS-SDF
 Max. Iterations for DIIS is     :   4
 DIIS matrix (see manual) 
    Scaling factor of diagonals  :  1.200
    threshold for scaling factor :  0.000

 scf convergence criterion : increment of total energy < .1000000D-06
                  and increment of one-electron energy < .1000000D-03

  MOs are in ASCII format !


 automatic virtual orbital shift switched on 
      shift if e(lumo)-e(homo) < 0.10000000    


 reading orbital data $scfmo  from file mos
 orbital characterization : expanded
 mo provided and orthogonalized by Cholesky decomposition

 DSCF restart information will be dumped onto file mos


 Starting SCF iterations

          Overall gridpoints after grid construction =         11013

 ITERATION  ENERGY          1e-ENERGY        2e-ENERGY     NORM[dD(SAO)]  TOL
   1  -76.936469871957    -148.38909997     46.854782475    0.000D+00 0.203D-10
                            Exc = -10.9688507760     Coul =  57.8236332511    
                              N = 13.999995578    
                            current damping = 0.700
 
          max. resid. norm for Fia-block=  4.707D-01 for orbital      3a         
          max. resid. fock norm         =  5.233D+01 for orbital    120a         

 ITERATION  ENERGY          1e-ENERGY        2e-ENERGY     NORM[dD(SAO)]  TOL
   2  -77.192470312255    -150.60645642     48.816138479    0.000D+00 0.203D-10
                            Exc = -11.2308999017     Coul =  60.0470383811    
                              N = 13.999996173    
                            current damping = 0.650
 
          Norm of current diis error:  1.6179    
          max. resid. norm for Fia-block=  1.378D-01 for orbital      2a         
          max. resid. fock norm         =  1.478D-01 for orbital     10a         

 ITERATION  ENERGY          1e-ENERGY        2e-ENERGY     NORM[dD(SAO)]  TOL
   3  -77.241828391545    -151.13656493     49.296888906    0.000D+00 0.203D-10
                            Exc = -11.3048465749     Coul =  60.6017354808    
                              N = 13.999996994    
                            current damping = 0.500
 
          Norm of current diis error: 0.74298    
          max. resid. norm for Fia-block=  5.587D-02 for orbital      2a         
          max. resid. fock norm         =  5.871D-02 for orbital      2a         

 ITERATION  ENERGY          1e-ENERGY        2e-ENERGY     NORM[dD(SAO)]  TOL
   4  -77.256318871382    -151.48216237     49.627995867    0.000D+00 0.203D-10
                            Exc = -11.3531414607     Coul =  60.9811373280    
                              N = 13.999998217    
                            current damping = 0.350
 
          Norm of current diis error: 0.26129    
          max. resid. norm for Fia-block=  1.920D-02 for orbital      2a         
          max. resid. fock norm         =  2.122D-02 for orbital      3a         

 ITERATION  ENERGY          1e-ENERGY        2e-ENERGY     NORM[dD(SAO)]  TOL
   5  -77.258630695451    -151.58134567     49.724867343    0.000D+00 0.203D-10
                            Exc = -11.3685972382     Coul =  61.0934645814    
                              N = 13.999999164    
                            current damping = 0.200
 
          Norm of current diis error: 0.73727E-01
          max. resid. norm for Fia-block=  5.362D-03 for orbital      3a         
          max. resid. fock norm         =  6.088D-03 for orbital      3a         
          mo-orthogonalization: Cholesky decomposition

 ITERATION  ENERGY          1e-ENERGY        2e-ENERGY     NORM[dD(SAO)]  TOL
   6  -77.258814048365    -151.62988285     49.773221178    0.000D+00 0.203D-10
                            Exc = -11.3753219454     Coul =  61.1485431230    
                              N = 13.999999493    
                            current damping = 0.050
 
          Norm of current diis error: 0.35884E-01
          max. resid. norm for Fia-block=  1.853D-03 for orbital      7a         
          max. resid. fock norm         =  3.822D-03 for orbital    141a         

 ITERATION  ENERGY          1e-ENERGY        2e-ENERGY     NORM[dD(SAO)]  TOL
   7  -77.258775074962    -151.62747906     49.770856357    0.000D+00 0.203D-10
                            Exc = -11.3753594202     Coul =  61.1462157774    
                              N = 13.999999582    
                            current damping = 0.100
 
          Norm of current diis error: 0.54504E-01
          max. resid. norm for Fia-block=  9.352D-04 for orbital      7a         
          max. resid. fock norm         =  1.941D-03 for orbital    141a         

 ITERATION  ENERGY          1e-ENERGY        2e-ENERGY     NORM[dD(SAO)]  TOL
   8  -77.258844947225    -151.62388070     49.767188129    0.000D+00 0.203D-10
                            Exc = -11.3749496615     Coul =  61.1421377901    
                              N = 13.999999594    
                            current damping = 0.050
 
          Norm of current diis error: 0.11476E-01
          max. resid. norm for Fia-block=  3.140D-04 for orbital      7a         
          max. resid. fock norm         =  5.585D-04 for orbital    141a         

 ITERATION  ENERGY          1e-ENERGY        2e-ENERGY     NORM[dD(SAO)]  TOL
   9  -77.258848040770    -151.63026912     49.773573455    0.000D+00 0.203D-10
                            Exc = -11.3756438742     Coul =  61.1492173290    
                              N = 13.999999582    
                            current damping = 0.100
 
          Norm of current diis error: 0.26960E-02
          max. resid. norm for Fia-block=  1.138D-04 for orbital      5a         
          max. resid. fock norm         =  1.607D-04 for orbital    116a         

 ITERATION  ENERGY          1e-ENERGY        2e-ENERGY     NORM[dD(SAO)]  TOL
  10  -77.258848204006    -151.62685283     49.770157001    0.000D+00 0.203D-10
                            Exc = -11.3752617387     Coul =  61.1454187399    
                              N = 13.999999588    
                            current damping = 0.150
 
          Norm of current diis error: 0.99275E-03
          max. resid. norm for Fia-block=  4.463D-05 for orbital      5a         
          max. resid. fock norm         =  6.172D-05 for orbital    116a         
          mo-orthogonalization: Cholesky decomposition

 ITERATION  ENERGY          1e-ENERGY        2e-ENERGY     NORM[dD(SAO)]  TOL
  11  -77.258848230087    -151.62817118     49.771475322    0.000D+00 0.203D-10
                            Exc = -11.3754116707     Coul =  61.1468869926    
                              N = 13.999999586    
                            current damping = 0.200
 
          Norm of current diis error: 0.25848E-03
          max. resid. norm for Fia-block=  7.433D-06 for orbital      6a         
          max. resid. fock norm         =  1.286D-05 for orbital    141a         

 ENERGY CONVERGED !

          Overall gridpoints after grid construction =         40206

 ITERATION  ENERGY          1e-ENERGY        2e-ENERGY     NORM[dD(SAO)]  TOL
  12  -77.258833993973    -151.62803387     49.771352248    0.000D+00 0.203D-10
                            Exc = -11.3753816512     Coul =  61.1467338989    
                              N = 13.999999408    
                            current damping = 0.250
 
          Norm of current diis error: 0.30530E-04
          max. resid. norm for Fia-block=  6.256D-07 for orbital      7a         
          max. resid. fock norm         =  1.217D-06 for orbital    141a         

 End of SCF iterations

   convergence criteria satisfied after    12 iterations


                  ------------------------------------------ 
                 |  total energy      =    -77.25883399397  |
                  ------------------------------------------ 
                 :  kinetic energy    =     76.88059565319  :
                 :  potential energy  =   -154.13942964716  :
                 :  virial theorem    =      1.99510427065  :
                 :  wavefunction norm =      1.00000000000  :
                  .......................................... 


 orbitals $scfmo  will be written to file mos

    irrep                  3a          4a          5a          6a          7a   
 eigenvalues H         -0.68171    -0.51699    -0.44761    -0.26284    -0.26284
            eV         -18.5504    -14.0680    -12.1802     -7.1522     -7.1522
 occupation              2.0000      2.0000      2.0000      2.0000      2.0000 

    irrep                  8a          9a         10a         11a         12a   
 eigenvalues H         -0.01537    -0.01537     0.02863     0.03905     0.09436
            eV          -0.4184     -0.4184      0.7790      1.0626      2.5676
 
 
 
 
 ==============================================================================
                           electrostatic moments
 ==============================================================================

 reference point for electrostatic moments:    0.00000   0.00000   0.00000

 
              nuc           elec       ->  total
 ------------------------------------------------------------------------------
                          charge      
 ------------------------------------------------------------------------------
          14.000000     -14.000000      -0.000000
 
 ------------------------------------------------------------------------------
                       dipole moment  
 ------------------------------------------------------------------------------
   x      10.730768     -10.731859      -0.001091
   y      -0.165967       0.166307       0.000340
   z     130.638360    -130.642025      -0.003665
 
   | dipole moment | =     0.0038 a.u. =     0.0098 debye 
 
 ------------------------------------------------------------------------------
                     quadrupole moment
 ------------------------------------------------------------------------------
  xx       8.650528     -18.813567     -10.163039
  yy       0.001973     -10.222168     -10.220195
  zz    1254.364687   -1259.790294      -5.425607
  xy      -0.125875       0.126276       0.000402
  xz     104.010080    -103.488255       0.521825
  yz      -1.536485       1.540876       0.004390
 
     1/3  trace=      -8.602947
     anisotropy=       4.851213
 
 ==============================================================================
 


    ------------------------------------------------------------------------
         total  cpu-time :   8.44 seconds
         total wall-time :   2.56 seconds
    ------------------------------------------------------------------------

   ****  ridft : all done  ****


    2019-03-12 22:55:32.869 

