
 eiger (gplogin1.local) : TURBOMOLE V7.2 ( 21454 ) 2 Oct 2017 at 16:43:05
 Copyright (C) 2017 TURBOMOLE GmbH, Karlsruhe


    2018-03-16 01:36:08.990 

                                                                                
  
Total energy =  -3969.2616502050 H =   -108009.1664684 eV
 
 HOMO-LUMO Separation
   HOMO:   338.   338 a     -0.25119514 H =     -6.83537 eV
   LUMO:   339.   339 a     +0.01504979 H =     +0.40953 eV
   Gap :                    +0.26624493 H =     +7.24490 eV
 
Number of MOs=   7488, Electrons=    676.00, Symmetry: c1   
 
   Nr.   Orbital    Occupation       Energy
  355.   355 a                     +0.095540 H =        +2.600 eV
  354.   354 a                     +0.093096 H =        +2.533 eV
  353.   353 a                     +0.092693 H =        +2.522 eV
  352.   352 a                     +0.091715 H =        +2.496 eV
  351.   351 a                     +0.091574 H =        +2.492 eV
  350.   350 a                     +0.089825 H =        +2.444 eV
  349.   349 a                     +0.089348 H =        +2.431 eV
  348.   348 a                     +0.084863 H =        +2.309 eV
  347.   347 a                     +0.082713 H =        +2.251 eV
  346.   346 a                     +0.078907 H =        +2.147 eV
  345.   345 a                     +0.070020 H =        +1.905 eV
  344.   344 a                     +0.069909 H =        +1.902 eV
  343.   343 a                     +0.033287 H =        +0.906 eV
  342.   342 a                     +0.032232 H =        +0.877 eV
  341.   341 a                     +0.031489 H =        +0.857 eV
  340.   340 a                     +0.030181 H =        +0.821 eV
  339.   339 a                     +0.015050 H =        +0.410 eV
  338.   338 a        2.000        -0.251195 H =        -6.835 eV
  337.   337 a        2.000        -0.251651 H =        -6.848 eV
  336.   336 a        2.000        -0.253522 H =        -6.899 eV
  335.   335 a        2.000        -0.268502 H =        -7.306 eV
  334.   334 a        2.000        -0.269737 H =        -7.340 eV
  333.   333 a        2.000        -0.304587 H =        -8.288 eV
  332.   332 a        2.000        -0.304931 H =        -8.298 eV
  331.   331 a        2.000        -0.310075 H =        -8.438 eV
  330.   330 a        2.000        -0.310288 H =        -8.443 eV
  329.   329 a        2.000        -0.339793 H =        -9.246 eV
  328.   328 a        2.000        -0.339979 H =        -9.251 eV
  327.   327 a        2.000        -0.341270 H =        -9.286 eV
  326.   326 a        2.000        -0.342573 H =        -9.322 eV
  325.   325 a        2.000        -0.345805 H =        -9.410 eV
  324.   324 a        2.000        -0.347621 H =        -9.459 eV
  323.   323 a        2.000        -0.348039 H =        -9.471 eV


    ------------------------------------------------------------------------
         total  cpu-time :  52.36 seconds
         total wall-time :  1 minutes and 14 seconds
    ------------------------------------------------------------------------

   ****  eiger : all done  ****


    2018-03-16 01:37:22.852 

