 this is node-proc. number 0 running on node c-7-29.local
 the total number of node-proc. spawned is  33

 dscfserver (c-7-29.local) : TURBOMOLE V7.2 ( 21471 ) 7 Nov 2017 at 16:15:16
 Copyright (C) 2017 TURBOMOLE GmbH, Karlsruhe


    2018-02-20 01:56:48.200 

 
    0:00:23 ---- Start global counter...
    0:07:52 ---- ... finished.
 
    0:08:25 ---- Start global counter...
    0:16:13 ---- ... finished.
 
    0:16:45 ---- Start global counter...
    0:23:51 ---- ... finished.
 
    0:24:23 ---- Start global counter...
    0:30:54 ---- ... finished.
 
    0:31:28 ---- Start global counter...
    0:37:04 ---- ... finished.
 
    0:37:43 ---- Start global counter...
    0:42:21 ---- ... finished.
 
    0:42:54 ---- Start global counter...
    0:47:02 ---- ... finished.
 
    0:47:35 ---- Start global counter...
    0:50:55 ---- ... finished.
 
    0:51:28 ---- Start global counter...
    0:54:28 ---- ... finished.
 
    0:55:01 ---- Start global counter...
    0:57:13 ---- ... finished.
 
    0:57:53 ---- Start global counter...
    0:59:30 ---- ... finished.
 
    1:00:02 ---- Start global counter...
    1:01:25 ---- ... finished.
 
    1:01:55 ---- ByeBye Tag received


 ! Total wall-clock time in seconds  :     3715.0
 ! Time (sec) spent in global counter:     3285.7
 ! So-called SERIAL wall-clock time  :      429.2

  *** Regular termination of server ***
 total turnaround time of dscfserver  3715.41 sec
 cpu elapsed by dscfserver process    3288.49 sec 

   ***  dscf server : all done  ***


    2018-02-20 02:58:43.610 

