Using OpenMPI from /sopt/mpi/openmpi-1.8.6/intel_15.0.3/bin/mpiexec
STARTING ridft ON 8 PROCESSORS!
RUNNING PROGRAM /beegfs/modfac/apps/TURBOMOLE/7.0_intel/bin/em64t-unknown-linux-gnu_mpi/ridft_mpi.
PLEASE WAIT UNTIL ridft HAS FINISHED.
Look for the output in slave1.output.
  this is node-proc. number 1 running on node c-5-42.local
  the total number of node-proc. spawned is            7
  parallel platform: MPP, or cluster with fast interconnect

 ridft (c-5-42.local) : TURBOMOLE V7.0( ) 6 Jul 2015 at 19:34:44
 Copyright (C) 2015 TURBOMOLE GmbH, Karlsruhe


    2017-11-09 10:35:56.314 



                                  r i d f t

                        DFT program with RI approximation 
                                for coulomb part 




                                                 
                                 References:     
                                                 
          TURBOMOLE:                             
              R. Ahlrichs, M. Baer, M. Haeser, H. Horn, and
              C. Koelmel
              Electronic structure calculations on workstation
              computers: the program system TURBOMOLE
              Chem. Phys. Lett. 162: 165 (1989)
          Density Functional:                              
              O. Treutler and R. Ahlrichs                      
              Efficient Molecular Numerical Integration Schemes
              J. Chem. Phys. 102: 346 (1995)                   
          Parallel Version:                                
              Performance of parallel TURBOMOLE for Density    
              Functional Calculations                          
              M. v. Arnim and R. Ahlrichs                      
              J. Comp. Chem. 19: 1746 (1998)                   
          RI-J Method:                                     
              Auxiliary Basis Sets to approximate Coulomb      
              Potentials                                       
              Chem. Phys. Lett. 240: 283 (1995)                
              K. Eichkorn, O. Treutler, H. Oehm, M. Haeser     
              and R. Ahlrichs                                  
              Chem. Phys. Lett. 242: 652 (1995)                
                                                           
              Auxiliary Basis Sets for Main Row Atoms and their
              Use to approximate Coulomb Potentials            
              K. Eichkorn, F. Weigend, O. Treutler and         
              R. Ahlrichs                                      
              Theo. Chem. Acc. 97: 119 (1997)                   
                                                           
              Accurate Coulomb-fitting basis sets for H to Rn 
              F. Weigend                                        
              Phys. Chem. Chem. Phys. 8: 1057 (2006)            
                                                           
          Multipole accelerated RI-J (MARI-J):             
              Fast evaluation of the Coulomb potential for     
              electron densities using multipole accelerated   
              resolution of identity approximation             
              M. Sierka, A. Hogekamp and R. Ahlrichs           
              J. Chem. Phys. 118: 9136 (2003)                  
          RI-JK Method:                                     
              A fully direct RI-HF algorithm: Implementation,
              optimised auxiliary basis sets, demonstration of
              accuracy and efficiency                         
              F. Weigend                                      
              Phys. Chem. Chem. Phys. 4: 4285 (2002)           
          Two-component HF and DFT with spin-orbit coupling:  
              Self-consistent treatment of spin-orbit         
              interactions with efficient Hartree-Fock and    
              density functional methods                      
              M. K. Armbruster, F. Weigend, C. van Wüllen and 
              W. Klopper                                      
              Phys. Chem. Chem. Phys. 10: 1748 (2008)         
          Relativistic all-electron 2c calculations           
              An efficient implementation of two-component    
              relativistic exact-decoupling methods for large 
              molecules                                       
              D. Peng, N. Middendorf, F. Weigend, M. Reiher   
              J. Chem. Phys. 138, 184105 (2013)               
                                         


 


              +--------------------------------------------------+
              |      general information about current run       |
              +--------------------------------------------------+

 

 SCF run will be profiled !


 DENSITY CONVERGENCE CHECK SWITCHED ON !
 SCF CONVERGENCE IF RMS(delta[D]) <     0.1000000000E-06

 PBE functional
 exchange:    LDA + PBE
 correlation: LDA (PW) + PBE
 A DFT calculation using the RI-J approximation will be carried out.
 Allocatable memory for RI due to $ricore (MB):       13000


              +--------------------------------------------------+
              | Atomic coordinate, charge and isotop information |
              +--------------------------------------------------+

                    atomic coordinates            atom    charge  isotop
         -0.20018604   -7.87471963   -2.09254772    c      0.000     0
          0.14048088   -7.78855065    2.40059653    c      0.000     0
          1.20752687   -2.47808280    6.62432958    c      0.000     0
          0.38048851   -6.37138420    4.80489514    c      0.000     0
         -0.43160402   -6.54951225   -4.54962049    c      0.000     0
         -1.22658032   -2.72228674   -6.51743765    c      0.000     0
         -0.03156601  -11.49360139    0.22424241    c      0.000     0
          1.95946924    0.20465048    6.21240842    c      0.000     0
          4.31732221    0.74017558    5.08327056    c      0.000     0
          0.29504563    2.18507429    6.88434032    c      0.000     0
         -1.95586029   -0.01922565   -6.21154766    c      0.000     0
         -0.27677211    1.91863032   -6.96582757    c      0.000     0
         -4.30915690    0.58110258   -5.10539054    c      0.000     0
          5.05336242    3.34022784    4.68510069    c      0.000     0
         -5.02577334    3.20106925   -4.81811512    c      0.000     0
          1.05924493    4.77693321    6.48480601    c      0.000     0
         -1.02176169    4.53059988   -6.67688095    c      0.000     0
         -0.03204465   -6.47630691    0.12819203    c      0.000     0
         -3.37852768    5.09837874   -5.63582048    c      0.000     0
          3.41979449    5.28253776    5.42038007    c      0.000     0
         -0.90650469   -3.81776637   -8.90981543    c      0.000     0
          0.87956774   -3.47807057    9.05696306    c      0.000     0
         -6.03177816   -1.30074758   -4.22509558    c      0.000     0
          6.02647310   -1.19023914    4.28514102    c      0.000     0
          2.20139976    1.40987732   -7.89054036    c      0.000     0
         -2.18657799    1.73429082    7.82943670    c      0.000     0
          0.06252407   -7.52664554    7.15917791    c      0.000     0
         -0.12262301   -7.79697437   -6.85758807    c      0.000     0
         -7.37731692    3.80103816   -3.65444222    c      0.000     0
          7.40953243    3.87269520    3.49808695    c      0.000     0
          0.71116379    6.47359495   -7.36886379    c      0.000     0
         -0.65946218    6.76025040    7.09305437    c      0.000     0
          0.30013978   -6.03371594    9.31290024    c      0.000     0
         -0.34821139   -6.38598709   -9.06716633    c      0.000     0
         -8.27391543   -0.64638514   -3.09874551    c      0.000     0
          8.27388125   -0.60099858    3.13375965    c      0.000     0
          3.82390490    3.33956272   -8.51760555    c      0.000     0
         -8.95648947    1.93031696   -2.79979377    c      0.000     0
         -3.79490143    3.70072318    8.37336760    c      0.000     0
          8.97558501    1.95564500    2.72601583    c      0.000     0
         -3.02420885    6.24525058    8.01874392    c      0.000     0
          3.07161725    5.90234954   -8.27221529    c      0.000     0
         -0.96623821   -4.06816982   -4.38705349    n      0.000     0
          0.93463579   -3.90248213    4.54701095    n      0.000     0
          0.10554206  -10.33600376    2.46911960    n      0.000     0
         -0.16571397  -10.42291322   -2.06350296    n      0.000     0
         -5.52888817   -3.27555082   -4.41711073    h      0.000     0
         -0.03511093   -4.43927831    0.08728609    h      0.000     0
          2.83236466   -0.53545467   -8.03468801    h      0.000     0
          5.50935321   -3.15139416    4.56123835    h      0.000     0
         -2.83184000   -0.19847335    8.05601913    h      0.000     0
         -9.52895647   -2.10940058   -2.39820891    h      0.000     0
         -3.92715037    7.06644070   -5.40605537    h      0.000     0
          3.98257509    7.23493035    5.10669474    h      0.000     0
         -0.35721702   -9.53005090    7.25230480    h      0.000     0
          0.28148120   -9.80567179   -6.87338031    h      0.000     0
         -1.12559083   -2.67141720  -10.59669494    h      0.000     0
        -10.72589693    2.41303543   -1.87962821    h      0.000     0
          1.10912985   -2.26969258   10.69853495    h      0.000     0
          7.92573692    5.83551597    3.18331781    h      0.000     0
         -7.87967444    5.77922830   -3.42525112    h      0.000     0
         -0.05921975    8.69924848    6.77637008    h      0.000     0
          0.12561351    8.42869880   -7.13412106    h      0.000     0
         -0.03362509  -13.54968985    0.26382633    h      0.000     0
          9.51807018   -2.10170030    2.49641206    h      0.000     0
         -5.69172448    3.30384552    9.04846421    h      0.000     0
          5.71802144    2.90061961   -9.17403300    h      0.000     0
         10.75009737    2.38566125    1.78965968    h      0.000     0
         -4.33369591    7.76892151    8.42994064    h      0.000     0
          4.39168670    7.39749361   -8.74903426    h      0.000     0
         -0.10685690   -7.27991648  -10.89910092    h      0.000     0
          0.05173235   -6.85454176   11.17779719    h      0.000     0
          2.44708640    1.91961895   -1.11989624    c      6.000     0
         -2.43984093    1.98960179    1.05034308    c      6.000     0
         -1.16926833   -0.35056112    0.56103313    c      6.000     0
          1.16264323   -0.38495217   -0.51252382    c      6.000     0
         -1.17079523    4.30208170    0.41170836    c      6.000     0
          1.19557964    4.26912272   -0.59197886    c      6.000     0
         -4.85912328    2.00530366    2.12114805    c      6.000     0
          4.86350260    1.86690873   -2.19625118    c      6.000     0
          6.07016858   -0.44533712   -2.81739403    c      6.000     0
         -6.08756385   -0.26716773    2.83899207    c      6.000     0
         -6.18254576    4.29560535    2.54802137    c      6.000     0
          6.20609564    4.12426322   -2.72505056    c      6.000     0
          7.03568300   -2.35386544   -3.33760336    n      7.000     0
         -7.24292873    6.19716894    2.87564012    n      7.000     0
          7.28384225    5.99998349   -3.13476183    n      7.000     0
         -7.07120857   -2.14339154    3.43688136    n      7.000     0
         -2.11281301   -2.10434673    1.04105016    h      1.000     0
         -2.12183961    6.08049497    0.78457728    h      1.000     0
          2.15902028    6.02050259   -1.05111198    h      1.000     0
          2.09896318   -2.16664634   -0.89310536    h      1.000     0
 
       center of nuclear mass  :   -0.00096570   -0.18204794    0.00350054
       center of nuclear charge:    0.00266037    1.93919424   -0.03681334

              +--------------------------------------------------+
              |               basis set information              |
              +--------------------------------------------------+

              we will work with the 1s 3p 5d 7f 9g ... basis set
              ...i.e. with spherical basis functions...

   type   atoms  prim   cont   basis
   ---------------------------------------------------------------------------
    c       54     50     30   cc-pVTZ   [4s3p2d1f|18s5p2d1f]
    n        8     50     30   cc-pVTZ   [4s3p2d1f|18s5p2d1f]
    h       30     16     14   cc-pVTZ   [3s2p1d|5s2p1d]
   ---------------------------------------------------------------------------
   total:   92   3580   2280
   ---------------------------------------------------------------------------

   total number of primitive shells          :   60
   total number of contracted shells         :  800
   total number of cartesian basis functions : 2620
   total number of SCF-basis functions       : 2280


 integral neglect threshold       :  0.13E-13
 integral storage threshold THIZE :  0.10E-04
 integral storage threshold THIME :         5

 RI-J AUXILIARY BASIS SET information:

              we will work with the 1s 3p 5d 7f 9g ... basis set
              ...i.e. with spherical basis functions...

   type   atoms  prim   cont   basis
   ---------------------------------------------------------------------------
    c       54     70     49   cc-pVTZ   [6s4p3d1f1g|12s5p4d2f1g]
    n        8     70     49   cc-pVTZ   [6s4p3d1f1g|12s5p4d2f1g]
    h       30     16     11   cc-pVTZ   [3s1p1d|5s2p1d]
   ---------------------------------------------------------------------------
   total:   92   4820   3368
   ---------------------------------------------------------------------------

   total number of primitive shells          :   56
   total number of contracted shells         : 1080
   total number of cartesian basis functions : 4142
   total number of SCF-basis functions       : 3368


 symmetry group of the molecule :   c1 

 the group has the following generators :
   c1(z)

    1 symmetry operations found

 there are 1 real representations :   a   

 maximum number of shells which are related by symmetry :  1


    mo occupation :
   irrep   mo's   occupied
    a     2280       52
 
 number of basis functions   :         2280
 number of occupied orbitals :           52
 
  
           ------------------
           density functional
           ------------------
 Dummy atoms with grid-point found.
 DFT quadrature threshold dgrenze tightened by factor 1/10.

 PBE functional
 exchange:    LDA + PBE
 correlation: LDA (PW) + PBE
 Dummy atoms with grid-point found.
 DFT quadrature threshold dgrenze tightened by factor 1/10.

 Dummy atoms with grid-point found.
 DFT quadrature threshold dgrenze tightened by factor 1/10.

 grinp -> nfun, dfgga, dfhybrid 
           6 T F
 iterations will be done with small grid
  
 spherical integration : Lebedev's spherical grid
 spherical gridsize    :           5
    i.e. gridpoints    :         590
 value for diffuse not defined
 radial integration    : Chebyshev 2nd kind (scaling 3)
 radial gridsize       :           8
 integration cells     :          92
 partition function    : becke
 partition sharpness   :           3
  
 found dummy atom(s) with basis: included in dft

 <rddim> : input of entry tasksize
           from data group '$pardft' failed !

               Default values taken

 <rddim> : input of entry memdiv
           from data group '$pardft' failed !

               Default values taken
  RIDFT: memory allocation for DFT gridpoints
  MEMORY is divided by 1 as DEFAULT
 Each node can hold at most  the            1 -th part
 of the gridpoints    

 biggest AO integral is expected to be     4.229423036
  
           ------------------------
               RI-J - INFORMATION
           ------------------------
 
 
 **************************************************
 *      MEMORY ALLOCATION FOR PARALLEL RI-DFT     *
 **************************************************
 
 
MEMORY FOR (MU NU/ ALPHA), SEQUENTIAL RUN              12913 MByte
 
            DIFFERENCE IN MEMORY NEED:       DIAG./SLAVE  
 
      TOTAL DIFFERENCE :                    295 MByte
 
      difference in xcore:                   88 MByte
      difference in fatmat:                  76 MByte
      getcor calls skipped by slaves:       132 MByte
 
 
           Integral memory available for diagonal.     12913 MByte
 
           Integral memory available for slave             0 MByte
 
         MEMORY FOR (MU NU/ ALPHA) ON DIAGONALIZER     12913 MByte
 
         MEMORY FOR (MU NU/ ALPHA) ON ONE SLAVE            0 MByte
 
         TOTAL MEMORY FOR (MU NU/ ALPHA),ALL NODES     12913 MByte
 
 Contributions to RI integral batches: 
  neglected integral batches:      161061
  direct contribution:              78335
  memory contribution:       81004
 Memory core needed for (P|Q) and Cholesky     87 MByte
 Memory core minimum needed except of (P|Q)     5 MByte
 Total minimum memory core needed (sum)        91 MByte
     number of direct tasks:         140
  
 ****************************************
 Memory allocated for RI-J 13004 MByte
 ****************************************
                                            

          ------------------------
          nuclear repulsion energy  :   835.403871779    
          ------------------------

 
          -----------------
          -S integrals
          -----------------

 1e-integrals will be neglected if expon. factor < 0.127556E-14
 
          -----------------
          -T+V integrals
          -----------------

 1e-integrals will be neglected if expon. factor < 0.127556E-14
 Difference densities >>NOT<< switched on in parallel ridft!

 automatic virtual orbital shift switched on 
      shift if e(lumo)-e(homo) < 0.10000000    


 DIIS switched on: error vector is FDS-SDF
 Max. Iterations for DIIS is     :   4
 DIIS matrix (see manual) 
    Scaling factor of diagonals  :  1.200
    threshold for scaling factor :  0.000

 scf convergence criterion : increment of total energy < .1000000D-08
                  and increment of one-electron energy < .1000000D-05


 <geterg> : there is no data group $energy 

  MOs are in ASCII format !


 reading orbital data $scfmo  from file mos . 

 orbital characterization : expanded
 
 mo provided and orthogonalized by Cholesky decomposition

 DSCF restart information will be dumped onto file mos


 Starting SCF iterations


 ITERATION  ENERGY          1e-ENERGY        2e-ENERGY     RMS[dD(SAO)]   TOL
   1  -673.91980062440    -2537.0042929     1027.6806205    0.000D+00 0.127D-13
                            Exc = -91.7299125134     Coul =  1119.41053302    
                              N = 104.00062840    
                            current damping = 0.700
 
          max. resid. norm for Fia-block=  4.541D-01 for orbital     43a         
          max. resid. fock norm         =  1.396D+01 for orbital   2082a         

 ITERATION  ENERGY          1e-ENERGY        2e-ENERGY     RMS[dD(SAO)]   TOL
   2  -677.40361542435    -2560.1286696     1047.3211824    0.166D-02 0.127D-13
                            Exc = -92.3940211097     Coul =  1139.71520351    
                              N = 104.00045710    
                            current damping = 0.650
 
          Norm of current diis error:  3.3889    
          max. resid. norm for Fia-block=  1.632D-01 for orbital      1a         
          max. resid. fock norm         =  3.393D-01 for orbital   2231a         

 ITERATION  ENERGY          1e-ENERGY        2e-ENERGY     RMS[dD(SAO)]   TOL
   3  -677.82135170259    -2567.1008847     1053.8756612    0.878D-03 0.127D-13
                            Exc = -93.0316175145     Coul =  1146.90727876    
                              N = 104.00039435    
                            current damping = 0.550
 
          Norm of current diis error:  1.7488    
          max. resid. norm for Fia-block=  6.837D-02 for orbital      4a         
          max. resid. fock norm         =  8.751D-02 for orbital   1835a         

 ITERATION  ENERGY          1e-ENERGY        2e-ENERGY     RMS[dD(SAO)]   TOL
   4  -677.95874218964    -2570.3983502     1057.0357363    0.668D-03 0.127D-13
                            Exc = -92.9380779630     Coul =  1149.97381424    
                              N = 104.00037864    
                            current damping = 0.450
 
          Norm of current diis error: 0.92099    
          max. resid. norm for Fia-block=  3.990D-02 for orbital     21a         
          max. resid. fock norm         =  5.549D-02 for orbital     23a         

 ITERATION  ENERGY          1e-ENERGY        2e-ENERGY     RMS[dD(SAO)]   TOL
   5  -677.99158834099    -2570.6212516     1057.2257915    0.261D-03 0.127D-13
                            Exc = -93.1118171280     Coul =  1150.33760862    
                              N = 104.00037392    
                            current damping = 0.300
 
          Norm of current diis error: 0.37086    
          max. resid. norm for Fia-block=  8.544D-03 for orbital     31a         
          max. resid. fock norm         =  1.751D-02 for orbital     19a         
          irrep a   : virtual orbitals shifted by    0.02152
          mo-orthogonalization: Cholesky decomposition

 ITERATION  ENERGY          1e-ENERGY        2e-ENERGY     RMS[dD(SAO)]   TOL
   6  -677.99751091722    -2571.0622098     1057.6608271    0.143D-03 0.127D-13
                            Exc = -93.1124406340     Coul =  1150.77326775    
                              N = 104.00037444    
                            current damping = 0.150
 
          Norm of current diis error: 0.14962    
          max. resid. norm for Fia-block=  6.264D-03 for orbital     50a         
          max. resid. fock norm         =  7.508D-03 for orbital     25a         
          irrep a   : virtual orbitals shifted by    0.04010

 ITERATION  ENERGY          1e-ENERGY        2e-ENERGY     RMS[dD(SAO)]   TOL
   7  -677.99768352615    -2571.5692381     1058.1676828    0.634D-04 0.127D-13
                            Exc = -93.1106602558     Coul =  1151.27834301    
                              N = 104.00037064    
                            current damping = 0.050
 
          Norm of current diis error: 0.14465    
          max. resid. norm for Fia-block=  2.199D-03 for orbital     50a         
          max. resid. fock norm         =  4.561D-03 for orbital     21a         
          irrep a   : virtual orbitals shifted by    0.04524

 ITERATION  ENERGY          1e-ENERGY        2e-ENERGY     RMS[dD(SAO)]   TOL
   8  -677.99849117773    -2571.2518438     1057.8494808    0.219D-04 0.127D-13
                            Exc = -93.1132418687     Coul =  1150.96272267    
                              N = 104.00037218    
                            current damping = 0.100
 
          Norm of current diis error: 0.18821E-01
          max. resid. norm for Fia-block=  7.257D-04 for orbital     28a         
          max. resid. fock norm         =  9.007D-04 for orbital     30a         
          irrep a   : virtual orbitals shifted by    0.04268

 ITERATION  ENERGY          1e-ENERGY        2e-ENERGY     RMS[dD(SAO)]   TOL
   9  -677.99850244969    -2571.2779482     1057.8755740    0.645D-05 0.127D-13
                            Exc = -93.1170436554     Coul =  1150.99261762    
                              N = 104.00037241    
                            current damping = 0.150
 
          Norm of current diis error: 0.12775E-01
          max. resid. norm for Fia-block=  4.074D-04 for orbital     28a         
          max. resid. fock norm         =  5.730D-04 for orbital   2228a         
          irrep a   : virtual orbitals shifted by    0.04012

 ITERATION  ENERGY          1e-ENERGY        2e-ENERGY     RMS[dD(SAO)]   TOL
  10  -677.99850740877    -2571.2810434     1057.8786642    0.281D-05 0.127D-13
                            Exc = -93.1154268975     Coul =  1150.99409108    
                              N = 104.00037226    
                            current damping = 0.050
 
          Norm of current diis error: 0.76384E-02
          max. resid. norm for Fia-block=  1.329D-04 for orbital     52a         
          max. resid. fock norm         =  2.230D-04 for orbital   2227a         
          irrep a   : virtual orbitals shifted by    0.04533
          mo-orthogonalization: Cholesky decomposition

 ITERATION  ENERGY          1e-ENERGY        2e-ENERGY     RMS[dD(SAO)]   TOL
  11  -677.99850922459    -2571.2710314     1057.8686504    0.120D-05 0.127D-13
                            Exc = -93.1156038699     Coul =  1150.98425422    
                              N = 104.00037227    
                            current damping = 0.100
 
          Norm of current diis error: 0.32071E-02
          max. resid. norm for Fia-block=  9.192D-05 for orbital     50a         
          max. resid. fock norm         =  1.538D-04 for orbital   2228a         
          irrep a   : virtual orbitals shifted by    0.04274

 ITERATION  ENERGY          1e-ENERGY        2e-ENERGY     RMS[dD(SAO)]   TOL
  12  -677.99850918644    -2571.2771813     1057.8748004    0.906D-06 0.127D-13
                            Exc = -93.1152943573     Coul =  1150.99009474    
                              N = 104.00037224    
                            current damping = 0.150
 
          Norm of current diis error: 0.34789E-02
          max. resid. norm for Fia-block=  3.816D-05 for orbital     31a         
          max. resid. fock norm         =  8.384D-05 for orbital   2227a         
          irrep a   : virtual orbitals shifted by    0.04013

 ITERATION  ENERGY          1e-ENERGY        2e-ENERGY     RMS[dD(SAO)]   TOL
  13  -677.99850957772    -2571.2742806     1057.8718993    0.287D-06 0.127D-13
                            Exc = -93.1153115589     Coul =  1150.98721084    
                              N = 104.00037226    
                            current damping = 0.200
 
          Norm of current diis error: 0.13567E-02
          max. resid. norm for Fia-block=  2.711D-05 for orbital     52a         
          max. resid. fock norm         =  4.475D-05 for orbital   2233a         
          irrep a   : virtual orbitals shifted by    0.03752

 ITERATION  ENERGY          1e-ENERGY        2e-ENERGY     RMS[dD(SAO)]   TOL
  14  -677.99850964381    -2571.2742758     1057.8718944    0.288D-06 0.127D-13
                            Exc = -93.1153794813     Coul =  1150.98727388    
                              N = 104.00037226    
                            current damping = 0.050
 
          Norm of current diis error: 0.63782E-03
          max. resid. norm for Fia-block=  1.844D-05 for orbital     45a         
          max. resid. fock norm         =  3.246D-05 for orbital   2233a         
          irrep a   : virtual orbitals shifted by    0.04533

 ITERATION  ENERGY          1e-ENERGY        2e-ENERGY     RMS[dD(SAO)]   TOL
  15  -677.99850964742    -2571.2732986     1057.8709172    0.222D-06 0.127D-13
                            Exc = -93.1154454801     Coul =  1150.98636270    
                              N = 104.00037227    
                            current damping = 0.050
 
          Norm of current diis error: 0.58487E-03
          max. resid. norm for Fia-block=  8.611D-06 for orbital     48a         
          max. resid. fock norm         =  1.593D-05 for orbital   2234a         
          irrep a   : virtual orbitals shifted by    0.04533
          mo-orthogonalization: Cholesky decomposition

 ITERATION  ENERGY          1e-ENERGY        2e-ENERGY     RMS[dD(SAO)]   TOL
  16  -677.99850966140    -2571.2736378     1057.8712564    0.106D-06 0.127D-13
                            Exc = -93.1154111523     Coul =  1150.98666754    
                              N = 104.00037226    
                            current damping = 0.100
 
          Norm of current diis error: 0.12434E-03
          max. resid. norm for Fia-block=  3.494D-06 for orbital     52a         
          max. resid. fock norm         =  5.510D-06 for orbital   2227a         
          irrep a   : virtual orbitals shifted by    0.04273

 DENSITY CONVERGED !


 ITERATION  ENERGY          1e-ENERGY        2e-ENERGY     RMS[dD(SAO)]   TOL
  17  -677.99850966126    -2571.2738559     1057.8714745    0.338D-07 0.127D-13
                            Exc = -93.1154001075     Coul =  1150.98687460    
                              N = 104.00037227    
                            current damping = 0.050
 
          Norm of current diis error: 0.13695E-03
          max. resid. norm for Fia-block=  2.514D-06 for orbital     52a         
          max. resid. fock norm         =  5.175D-06 for orbital   2228a         
          irrep a   : virtual orbitals shifted by    0.04533

 DENSITY CONVERGED !


 ITERATION  ENERGY          1e-ENERGY        2e-ENERGY     RMS[dD(SAO)]   TOL
  18  -677.99850966162    -2571.2738253     1057.8714438    0.190D-07 0.127D-13
                            Exc = -93.1154052544     Coul =  1150.98684908    
                              N = 104.00037227    
                            current damping = 0.100
 
          Norm of current diis error: 0.10206E-03
          max. resid. norm for Fia-block=  1.432D-06 for orbital     52a         
          max. resid. fock norm         =  4.646D-06 for orbital      5a         
          irrep a   : virtual orbitals shifted by    0.04273

 DENSITY CONVERGED !


 ITERATION  ENERGY          1e-ENERGY        2e-ENERGY     RMS[dD(SAO)]   TOL
  19  -677.99850966201    -2571.2737967     1057.8714152    0.132D-07 0.127D-13
                            Exc = -93.1154056009     Coul =  1150.98682084    
                              N = 104.00037227    
                            current damping = 0.050
 
          Norm of current diis error: 0.21723E-04
          max. resid. norm for Fia-block=  8.278D-07 for orbital     50a         
          max. resid. fock norm         =  1.856D-06 for orbital      1a         
          irrep a   : virtual orbitals shifted by    0.04533

 DENSITY CONVERGED !


 ITERATION  ENERGY          1e-ENERGY        2e-ENERGY     RMS[dD(SAO)]   TOL
  20  -677.99850966200    -2571.2737112     1057.8713298    0.991D-08 0.127D-13
                            Exc = -93.1154084722     Coul =  1150.98673824    
                              N = 104.00037227    
                            current damping = 0.050
 
          Norm of current diis error: 0.34753E-04
          max. resid. norm for Fia-block=  3.594D-07 for orbital     48a         
          max. resid. fock norm         =  6.765D-07 for orbital   2234a         
          irrep a   : virtual orbitals shifted by    0.04533
          mo-orthogonalization: Cholesky decomposition

 ENERGY & DENSITY CONVERGED !


 ITERATION  ENERGY          1e-ENERGY        2e-ENERGY     RMS[dD(SAO)]   TOL
  21  -677.99844926774    -2571.2737460     1057.8714250    0.444D-08 0.127D-13
                            Exc = -93.1153467643     Coul =  1150.98677175    
                              N = 104.00007500    
                            current damping = 0.100
 
          Norm of current diis error: 0.11861E-04
          max. resid. norm for Fia-block=  1.830D-07 for orbital     50a         
          max. resid. fock norm         =  2.922D-07 for orbital   2228a         

 End of SCF iterations

   convergence criteria satisfied after   21 iterations


                  ------------------------------------------ 
                 |  total energy      =   -677.99844926774  |
                  ------------------------------------------ 
                 :  kinetic energy    =    673.86952424212  :
                 :  potential energy  =  -1351.86797350986  :
                 :  virial theorem    =      1.99391012615  :
                 :  wavefunction norm =      1.00000000000  :
                  .......................................... 


 <geterg> : there is no data group $energy 


 <skperg> : $end is missing 


 orbitals $scfmo  will be written to file mos

    irrep                 48a         49a         50a         51a         52a   
 eigenvalues H         -0.33622    -0.33464    -0.32124    -0.30475    -0.25576
            eV          -9.1490     -9.1061     -8.7416     -8.2927     -6.9595
 occupation              2.0000      2.0000      2.0000      2.0000      2.0000 

    irrep                 53a         54a         55a         56a         57a   
 eigenvalues H         -0.20369    -0.10714    -0.10197    -0.07847    -0.07318
            eV          -5.5428     -2.9154     -2.7747     -2.1352     -1.9914
 
 
 ! grave: sending quit signal to master process
 
 
 
 
 ==============================================================================
                           electrostatic moments
 ==============================================================================

 reference point for electrostatic moments:    0.00000   0.00000   0.00000

 
              nuc           elec       ->  total
 ------------------------------------------------------------------------------
                          charge      
 ------------------------------------------------------------------------------
         104.000000    -104.000000      -0.000000
 
 ------------------------------------------------------------------------------
                       dipole moment  
 ------------------------------------------------------------------------------
   x       0.276679      -0.274750       0.001928
   y     201.676201    -201.660701       0.015499
   z      -3.828588       3.833278       0.004690
 
   | dipole moment | =     0.0163 a.u. =     0.0415 debye 
 
 ------------------------------------------------------------------------------
                     quadrupole moment
 ------------------------------------------------------------------------------
  xx    2745.372205   -2837.841331     -92.469125
  yy    1201.433603   -1279.500699     -78.067096
  zz     547.097073    -618.966883     -71.869810
  xy     -35.100835      35.405884       0.305049
  xz   -1222.830975    1234.401063      11.570088
  yz      -8.055721       8.114080       0.058359
 
     1/3  trace=     -80.802010
     anisotropy=      27.147164
 
 ==============================================================================
 

    ridft profiling
  --------------------------------------------------------------------
             module   cpu total (s)       %  wall total (s)       %

               RIDFT          5023.9  100.00          5027.7  100.00
         Ridft_b_scf          1100.1   21.90          1099.4   21.87
        b_scf_prelim             0.0    0.00             0.0    0.00
        b_scf_molinp             0.0    0.00             0.0    0.00
         b_scf_init0             0.0    0.00             0.0    0.00
        b_scf_auxbas             0.0    0.00             0.0    0.00
      b_scf_symmetry             0.0    0.00             0.1    0.00
         b_scf_cosmo             0.0    0.00             0.0    0.00
        b_scf_params          1017.5   20.25          1016.8   20.22
          b_scf_ri-j            67.6    1.35            67.5    1.34
    b_scf_ri-j_auxpq            67.6    1.34            67.5    1.34
     ri-j_auxpq_chol             3.6    0.07             3.6    0.07
         b_scf_1elec             1.2    0.02             1.2    0.02
       b_scf_moinput            13.7    0.27            13.7    0.27
     moinput_orthmos            13.6    0.27            13.6    0.27
    b_scf_dft-dstmax             0.0    0.00             0.0    0.00
           Ridft_scf          3923.1   78.09          3927.7   78.12
          Scf_b_loop             0.0    0.00             0.0    0.00
                noga             0.0    0.00             0.0    0.00
            Scf_loop          3921.0   78.05          3925.5   78.08
     scf_loop_mkdmat             5.1    0.10             5.2    0.10
       scf_loop_ri-j           343.8    6.84           343.6    6.83
      parlp1.bc.dens             1.4    0.03             1.4    0.03
        parlp1.gs.gp             0.4    0.01             0.4    0.01
        parlp2.bc.gq             0.0    0.00             0.0    0.00
        scf_loop_dft          3321.2   66.11          3324.7   66.13
      pardft.bc.dens             0.0    0.00             0.0    0.00
        dft_grid_con            28.1    0.56            28.1    0.56
           dft_xcrhf          3159.4   62.89          3163.1   62.91
          dft_getval           711.0   14.15           712.8   14.18
          funct2 dst             2.5    0.05             2.5    0.05
      funct2 f2loop1           173.6    3.46           174.1    3.46
      funct2 f2loop2           467.4    9.30           468.6    9.32
          funct2 s+c            60.1    1.20            60.3    1.20
        funct2 cmf_2            57.5    1.15            57.8    1.15
          dft_mkdens          1155.3   23.00          1156.5   23.00
         dft_gga-fun             1.0    0.02             1.1    0.02
          dft_mkfock          1232.6   24.54          1233.1   24.53
     pardft.red.fock           336.4    6.70           336.5    6.69
     scf_loop_energy             0.1    0.00             0.2    0.00
     scf_loop_mkfock             0.1    0.00             0.1    0.00
       scf_loop_diis            99.0    1.97           100.0    1.99
       scf_loop_diag            93.4    1.86            93.3    1.86
         diag_tritrn            33.6    0.67            33.6    0.67
          diag_rdiag            59.4    1.18            59.3    1.18
     scf_loop_modump            37.1    0.74            37.4    0.74
      scf_loop_ortho            19.6    0.39            19.6    0.39
          Scf_a_loop             2.1    0.04             2.1    0.04
         Ridft_a_scf             0.6    0.01             0.6    0.01
         a_scf_fanal             0.4    0.01             0.4    0.01
 


    ------------------------------------------------------------------------
         total  cpu-time :  1 hours 23 minutes and 47 seconds
         total wall-time :  1 hours 23 minutes and 50 seconds
    ------------------------------------------------------------------------


   ****  ridft : all done  ****


    2017-11-09 11:59:46.660 

