Using Slurm to start processes with PMI2
STARTING ridft ON 8 PROCESSORS!
RUNNING PROGRAM /beegfs/modfac/apps/TURBOMOLE/7.0_intel_GA/bin/em64t-unknown-linux-gnu_mpi/ridft_mpi.
PLEASE WAIT UNTIL ridft HAS FINISHED.
Look for the output in slave1.output.
  this is node-proc. number 1 running on node c-9-372.local
  the total number of node-proc. spawned is            8
  parallel platform: MPP, or cluster with fast interconnect

 ridft (c-9-372.local) : TURBOMOLE V7.0.2( ) 15 Jan 2016 at 17:47:42
 Copyright (C) 2016 TURBOMOLE GmbH, Karlsruhe


    2017-11-07 23:32:35.407 



                                  r i d f t

                        DFT program with RI approximation 
                                for coulomb part 




                                                 
                                 References:     
                                                 
          TURBOMOLE:                             
              R. Ahlrichs, M. Baer, M. Haeser, H. Horn, and
              C. Koelmel
              Electronic structure calculations on workstation
              computers: the program system TURBOMOLE
              Chem. Phys. Lett. 162: 165 (1989)
          Density Functional:                              
              O. Treutler and R. Ahlrichs                      
              Efficient Molecular Numerical Integration Schemes
              J. Chem. Phys. 102: 346 (1995)                   
          Parallel Version:                                
              Performance of parallel TURBOMOLE for Density    
              Functional Calculations                          
              M. v. Arnim and R. Ahlrichs                      
              J. Comp. Chem. 19: 1746 (1998)                   
          RI-J Method:                                     
              Auxiliary Basis Sets to approximate Coulomb      
              Potentials                                       
              Chem. Phys. Lett. 240: 283 (1995)                
              K. Eichkorn, O. Treutler, H. Oehm, M. Haeser     
              and R. Ahlrichs                                  
              Chem. Phys. Lett. 242: 652 (1995)                
                                                           
              Auxiliary Basis Sets for Main Row Atoms and their
              Use to approximate Coulomb Potentials            
              K. Eichkorn, F. Weigend, O. Treutler and         
              R. Ahlrichs                                      
              Theo. Chem. Acc. 97: 119 (1997)                   
                                                           
              Accurate Coulomb-fitting basis sets for H to Rn 
              F. Weigend                                        
              Phys. Chem. Chem. Phys. 8: 1057 (2006)            
                                                           
          Multipole accelerated RI-J (MARI-J):             
              Fast evaluation of the Coulomb potential for     
              electron densities using multipole accelerated   
              resolution of identity approximation             
              M. Sierka, A. Hogekamp and R. Ahlrichs           
              J. Chem. Phys. 118: 9136 (2003)                  
          RI-JK Method:                                     
              A fully direct RI-HF algorithm: Implementation,
              optimised auxiliary basis sets, demonstration of
              accuracy and efficiency                         
              F. Weigend                                      
              Phys. Chem. Chem. Phys. 4: 4285 (2002)           
          Two-component HF and DFT with spin-orbit coupling:  
              Self-consistent treatment of spin-orbit         
              interactions with efficient Hartree-Fock and    
              density functional methods                      
              M. K. Armbruster, F. Weigend, C. van Wüllen and 
              W. Klopper                                      
              Phys. Chem. Chem. Phys. 10: 1748 (2008)         
          Relativistic all-electron 2c calculations           
              An efficient implementation of two-component    
              relativistic exact-decoupling methods for large 
              molecules                                       
              D. Peng, N. Middendorf, F. Weigend, M. Reiher   
              J. Chem. Phys. 138, 184105 (2013)               
                                         


 


              +--------------------------------------------------+
              |      general information about current run       |
              +--------------------------------------------------+

 

 SCF run will be profiled !


 DENSITY CONVERGENCE CHECK SWITCHED ON !
 SCF CONVERGENCE IF RMS(delta[D]) <     0.1000000000E-06

 TPSS meta-GGA functional
 exchange:    LDA + TPSS
 correlation: LDA (PW) + TPSS
 A DFT calculation using the RI-J approximation will be carried out.
 Allocatable memory for RI due to $ricore (MB):       14000


              +--------------------------------------------------+
              | Atomic coordinate, charge and isotop information |
              +--------------------------------------------------+

                    atomic coordinates            atom    charge  isotop
         -1.51338642    6.31022453    0.00492784    n      7.000     0
          0.50967728    4.32748456    0.00163934    c      6.000     0
         -0.63733111    1.68570941    0.00059810    c      6.000     0
          1.39240067   -0.37959156    0.00306740    c      6.000     0
          0.24920385   -3.03569026    0.00701447    c      6.000     0
         -2.68770891    6.13649180    1.55901272    h      1.000     0
         -0.74185924    8.15287323    0.00631981    h      1.000     0
         -2.68445669    6.13752283   -1.55146497    h      1.000     0
          1.73115128   -4.47498260    0.00824072    h      1.000     0
         -0.93424281   -3.33558848   -1.66422001    h      1.000     0
         -0.93259515   -3.33113798    1.68014020    h      1.000     0
          2.60727782   -0.13738366    1.66494680    h      1.000     0
          2.60777690   -0.14186628   -1.65908317    h      1.000     0
         -1.85164588    1.44926952    1.66715854    h      1.000     0
         -1.85002299    1.44847281   -1.66693479    h      1.000     0
          1.66661354    4.65522354    1.67470969    h      1.000     0
          1.66343937    4.65895008   -1.67297606    h      1.000     0
          0.43503083   11.82714051    0.00441157    cl    17.000     0
 
       center of nuclear mass  :    0.10029573    5.11208216    0.00382856
       center of nuclear charge:    0.07465418    4.70063797    0.00382095

              +--------------------------------------------------+
              |               basis set information              |
              +--------------------------------------------------+

              we will work with the 1s 3p 5d 7f 9g ... basis set
              ...i.e. with spherical basis functions...

   type   atoms  prim   cont   basis
   ---------------------------------------------------------------------------
    n        1     77     55   cc-pVQZ   [5s4p3d2f1g|21s6p3d2f1g]
    c        4     77     55   cc-pVQZ   [5s4p3d2f1g|21s6p3d2f1g]
    h       12     32     30   cc-pVQZ   [4s3p2d1f|6s3p2d1f]
    cl       1    137     59   cc-pVQZ   [6s5p3d2f1g|42s19p3d2f1g]
   ---------------------------------------------------------------------------
   total:   18    906    694
   ---------------------------------------------------------------------------

   total number of primitive shells          :  145
   total number of contracted shells         :  212
   total number of cartesian basis functions :  844
   total number of SCF-basis functions       :  694


 integral neglect threshold       :  0.39E-13
 integral storage threshold THIZE :  0.10E-04
 integral storage threshold THIME :         5

 RI-J AUXILIARY BASIS SET information:

              we will work with the 1s 3p 5d 7f 9g ... basis set
              ...i.e. with spherical basis functions...

   type   atoms  prim   cont   basis
   ---------------------------------------------------------------------------
    n        1     70     49   cc-pVQZ   [6s4p3d1f1g|12s5p4d2f1g]
    c        4     70     49   cc-pVQZ   [6s4p3d1f1g|12s5p4d2f1g]
    h       12     16     11   cc-pVQZ   [3s1p1d|5s2p1d]
    cl       1     77     51   cc-pVQZ   [8s4p3d1f1g|14s5p5d2f1g]
   ---------------------------------------------------------------------------
   total:   18    619    428
   ---------------------------------------------------------------------------

   total number of primitive shells          :   83
   total number of contracted shells         :  152
   total number of cartesian basis functions :  512
   total number of SCF-basis functions       :  428


 symmetry group of the molecule :   c1 

 the group has the following generators :
   c1(z)

    1 symmetry operations found

 there are 1 real representations :   a   

 maximum number of shells which are related by symmetry :  1


    mo occupation :
   irrep   mo's   occupied
    a      694       30
 
 number of basis functions   :          694
 number of occupied orbitals :           30
 
  
           ------------------
           density functional
           ------------------
 TPSS meta-GGA functional
 exchange:    LDA + TPSS
 correlation: LDA (PW) + TPSS
 grinp -> nfun, dfgga, dfhybrid 
           5 F F
 iterations will be done with small grid
  
 spherical integration : Lebedev's spherical grid
 spherical gridsize    :           5
    i.e. gridpoints    :         590
 value for diffuse not defined
 radial integration    : Chebyshev 2nd kind (scaling 3)
 radial gridsize       :           8
 integration cells     :          18
 partition function    : becke
 partition sharpness   :           3
  

 <rddim> : input of entry tasksize
           from data group '$pardft' failed !

               Default values taken

 <rddim> : input of entry memdiv
           from data group '$pardft' failed !

               Default values taken
  RIDFT: memory allocation for DFT gridpoints
  MEMORY is divided by 1 as DEFAULT
 Each node can hold at most  the            1 -th part
 of the gridpoints    

 biggest AO integral is expected to be    10.299525420
  
           ------------------------
               RI-J - INFORMATION
           ------------------------
 
 
 **************************************************
 *      MEMORY ALLOCATION FOR PARALLEL RI-DFT     *
 **************************************************
 
 
MEMORY FOR (MU NU/ ALPHA), SEQUENTIAL RUN              13999 MByte
 
            DIFFERENCE IN MEMORY NEED:       DIAG./SLAVE  
 
      TOTAL DIFFERENCE :                     22 MByte
 
      difference in xcore:                    2 MByte
      difference in fatmat:                   7 MByte
      getcor calls skipped by slaves:        13 MByte
 
 
           Integral memory available for diagonal.     13999 MByte
 
           Integral memory available for slave             0 MByte
 
         MEMORY FOR (MU NU/ ALPHA) ON DIAGONALIZER     13999 MByte
 
         MEMORY FOR (MU NU/ ALPHA) ON ONE SLAVE            0 MByte
 
         TOTAL MEMORY FOR (MU NU/ ALPHA),ALL NODES     13999 MByte
 
 Contributions to RI integral batches: 
  neglected integral batches:        4828
  direct contribution:                  0
  memory contribution:       17750
 Memory core needed for (P|Q) and Cholesky      2 MByte
 Memory core minimum needed except of (P|Q)     3 MByte
 Total minimum memory core needed (sum)         4 MByte
  
 ****************************************
 Memory allocated for RI-J 14003 MByte
 ****************************************
                                            

          ------------------------
          nuclear repulsion energy  :   276.658203880    
          ------------------------

 
          -----------------
          -S integrals
          -----------------

 1e-integrals will be neglected if expon. factor < 0.395967E-14
 
          -----------------
          -T+V integrals
          -----------------

 1e-integrals will be neglected if expon. factor < 0.395967E-14
 Difference densities >>NOT<< switched on in parallel ridft!

 automatic virtual orbital shift switched on 
      shift if e(lumo)-e(homo) < 0.10000000    


 DIIS switched on: error vector is FDS-SDF
 Max. Iterations for DIIS is     :   4
 DIIS matrix (see manual) 
    Scaling factor of diagonals  :  1.200
    threshold for scaling factor :  0.000

 scf convergence criterion : increment of total energy < .1000000D-08
                  and increment of one-electron energy < .1000000D-05


 <geterg> : there is no data group $energy 

  MOs are in ASCII format !


 reading orbital data $scfmo  from file mos . 

 orbital characterization : expanded
 
 mo provided and orthogonalized by Cholesky decomposition

 DSCF restart information will be dumped onto file mos


 Starting SCF iterations


 ITERATION  ENERGY          1e-ENERGY        2e-ENERGY     RMS[dD(SAO)]   TOL
   1  -673.92785994862    -1466.2576866     515.67162275    0.000D+00 0.395D-13
                            Exc = -60.5644477000     Coul =  576.236070455    
                              N = 59.999730047    
                            current damping = 0.700
 
          max. resid. norm for Fia-block=  3.023D-01 for orbital      2a         
          max. resid. fock norm         =  7.837D+00 for orbital    675a         

 ITERATION  ENERGY          1e-ENERGY        2e-ENERGY     RMS[dD(SAO)]   TOL
   2  -674.57642574621    -1470.4028394     519.16820975    0.252D-02 0.395D-13
                            Exc = -61.0807885284     Coul =  580.248998276    
                              N = 59.999775531    
                            current damping = 0.650
 
          Norm of current diis error:  2.6949    
          max. resid. norm for Fia-block=  1.258D-01 for orbital      2a         
          max. resid. fock norm         =  1.662D-01 for orbital    684a         

 ITERATION  ENERGY          1e-ENERGY        2e-ENERGY     RMS[dD(SAO)]   TOL
   3  -674.72856718011    -1470.9044660     519.51769490    0.133D-02 0.395D-13
                            Exc = -61.2351209154     Coul =  580.752815815    
                              N = 59.999801967    
                            current damping = 0.500
 
          Norm of current diis error:  1.2555    
          max. resid. norm for Fia-block=  5.290D-02 for orbital      2a         
          max. resid. fock norm         =  6.053D-02 for orbital    405a         

 ITERATION  ENERGY          1e-ENERGY        2e-ENERGY     RMS[dD(SAO)]   TOL
   4  -674.77448215129    -1471.7839180     520.35123201    0.102D-02 0.395D-13
                            Exc = -61.3796867629     Coul =  581.730918774    
                              N = 59.999821354    
                            current damping = 0.400
 
          Norm of current diis error: 0.42648    
          max. resid. norm for Fia-block=  1.757D-02 for orbital      2a         
          max. resid. fock norm         =  3.264D-02 for orbital    367a         

 ITERATION  ENERGY          1e-ENERGY        2e-ENERGY     RMS[dD(SAO)]   TOL
   5  -674.78105775892    -1471.7753252     520.33606357    0.615D-03 0.395D-13
                            Exc = -61.4090754086     Coul =  581.745138982    
                              N = 59.999829728    
                            current damping = 0.450
 
          Norm of current diis error: 0.15694    
          max. resid. norm for Fia-block=  6.794D-03 for orbital     11a         
          max. resid. fock norm         =  1.263D-02 for orbital    688a         
          mo-orthogonalization: Cholesky decomposition

 ITERATION  ENERGY          1e-ENERGY        2e-ENERGY     RMS[dD(SAO)]   TOL
   6  -674.78185401403    -1471.9695198     520.52946191    0.240D-03 0.395D-13
                            Exc = -61.4346018597     Coul =  581.964063772    
                              N = 59.999832776    
                            current damping = 0.500
 
          Norm of current diis error: 0.59689E-01
          max. resid. norm for Fia-block=  2.383D-03 for orbital     18a         
          max. resid. fock norm         =  5.362D-03 for orbital    367a         

 ITERATION  ENERGY          1e-ENERGY        2e-ENERGY     RMS[dD(SAO)]   TOL
   7  -674.78195109418    -1471.9515718     520.51141681    0.666D-04 0.395D-13
                            Exc = -61.4350710056     Coul =  581.946487819    
                              N = 59.999833615    
                            current damping = 0.550
 
          Norm of current diis error: 0.15106E-01
          max. resid. norm for Fia-block=  6.002D-04 for orbital     11a         
          max. resid. fock norm         =  1.527D-03 for orbital    687a         

 ITERATION  ENERGY          1e-ENERGY        2e-ENERGY     RMS[dD(SAO)]   TOL
   8  -674.78195938528    -1471.9361332     520.49596994    0.299D-04 0.395D-13
                            Exc = -61.4348978326     Coul =  581.930867773    
                              N = 59.999833893    
                            current damping = 0.400
 
          Norm of current diis error: 0.65946E-02
          max. resid. norm for Fia-block=  2.445D-04 for orbital     16a         
          max. resid. fock norm         =  6.510D-04 for orbital    687a         

 ITERATION  ENERGY          1e-ENERGY        2e-ENERGY     RMS[dD(SAO)]   TOL
   9  -674.78196079581    -1471.9481965     520.50803182    0.902D-05 0.395D-13
                            Exc = -61.4361289694     Coul =  581.944160791    
                              N = 59.999834038    
                            current damping = 0.450
 
          Norm of current diis error: 0.15937E-02
          max. resid. norm for Fia-block=  6.485D-05 for orbital     12a         
          max. resid. fock norm         =  2.666D-04 for orbital    687a         

 ITERATION  ENERGY          1e-ENERGY        2e-ENERGY     RMS[dD(SAO)]   TOL
  10  -674.78196089651    -1471.9473788     520.50721404    0.350D-05 0.395D-13
                            Exc = -61.4361754535     Coul =  581.943389497    
                              N = 59.999834075    
                            current damping = 0.500
 
          Norm of current diis error: 0.58331E-03
          max. resid. norm for Fia-block=  2.374D-05 for orbital     18a         
          max. resid. fock norm         =  7.543D-05 for orbital    687a         
          mo-orthogonalization: Cholesky decomposition

 ITERATION  ENERGY          1e-ENERGY        2e-ENERGY     RMS[dD(SAO)]   TOL
  11  -674.78196090655    -1471.9470272     520.50686242    0.847D-06 0.395D-13
                            Exc = -61.4361703333     Coul =  581.943032758    
                              N = 59.999834085    
                            current damping = 0.350
 
          Norm of current diis error: 0.23114E-03
          max. resid. norm for Fia-block=  1.150D-05 for orbital     17a         
          max. resid. fock norm         =  4.586D-05 for orbital    687a         

 ITERATION  ENERGY          1e-ENERGY        2e-ENERGY     RMS[dD(SAO)]   TOL
  12  -674.78196090797    -1471.9473670     520.50720221    0.391D-06 0.395D-13
                            Exc = -61.4362102160     Coul =  581.943412425    
                              N = 59.999834090    
                            current damping = 0.400
 
          Norm of current diis error: 0.11630E-03
          max. resid. norm for Fia-block=  5.096D-06 for orbital     19a         
          max. resid. fock norm         =  8.128D-06 for orbital    683a         

 DENSITY CONVERGED !


 ITERATION  ENERGY          1e-ENERGY        2e-ENERGY     RMS[dD(SAO)]   TOL
  13  -674.78196090822    -1471.9473862     520.50722144    0.819D-07 0.395D-13
                            Exc = -61.4362127424     Coul =  581.943434178    
                              N = 59.999834092    
                            current damping = 0.250
 
          Norm of current diis error: 0.51550E-04
          max. resid. norm for Fia-block=  1.602D-06 for orbital     26a         
          max. resid. fock norm         =  4.274D-06 for orbital    687a         

 DENSITY CONVERGED !


 ITERATION  ENERGY          1e-ENERGY        2e-ENERGY     RMS[dD(SAO)]   TOL
  14  -674.78196090826    -1471.9472445     520.50707968    0.546D-07 0.395D-13
                            Exc = -61.4362034555     Coul =  581.943283131    
                              N = 59.999834092    
                            current damping = 0.300
 
          Norm of current diis error: 0.30972E-04
          max. resid. norm for Fia-block=  8.883D-07 for orbital     25a         
          max. resid. fock norm         =  1.909D-06 for orbital    692a         

 DENSITY CONVERGED !


 ITERATION  ENERGY          1e-ENERGY        2e-ENERGY     RMS[dD(SAO)]   TOL
  15  -674.78196090828    -1471.9472941     520.50712931    0.110D-07 0.395D-13
                            Exc = -61.4362069991     Coul =  581.943336305    
                              N = 59.999834092    
                            current damping = 0.350
 
          Norm of current diis error: 0.82315E-05
          max. resid. norm for Fia-block=  2.686D-07 for orbital     19a         
          max. resid. fock norm         =  7.838D-07 for orbital    687a         
          mo-orthogonalization: Cholesky decomposition

 ENERGY & DENSITY CONVERGED !


 ITERATION  ENERGY          1e-ENERGY        2e-ENERGY     RMS[dD(SAO)]   TOL
  16  -674.78183979977    -1471.9473076     520.50726390    0.390D-08 0.395D-13
                            Exc = -61.4360870554     Coul =  581.943350954    
                              N = 59.999988001    
                            current damping = 0.200
 
          Norm of current diis error: 0.24323E-05
          max. resid. norm for Fia-block=  7.618D-08 for orbital     18a         
          max. resid. fock norm         =  2.281D-07 for orbital    687a         

 End of SCF iterations

   convergence criteria satisfied after   16 iterations


                  ------------------------------------------ 
                 |  total energy      =   -674.78183979977  |
                  ------------------------------------------ 
                 :  kinetic energy    =    672.33717016886  :
                 :  potential energy  =  -1347.11900996863  :
                 :  virial theorem    =      1.99637709629  :
                 :  wavefunction norm =      1.00000000000  :
                  .......................................... 


 <geterg> : there is no data group $energy 


 <skperg> : $end is missing 


 orbitals $scfmo  will be written to file mos

    irrep                 26a         27a         28a         29a         30a   
 eigenvalues H         -0.34290    -0.33784    -0.17913    -0.16209    -0.16195
            eV          -9.3308     -9.1931     -4.8745     -4.4108     -4.4069
 occupation              2.0000      2.0000      2.0000      2.0000      2.0000 

    irrep                 31a         32a         33a         34a         35a   
 eigenvalues H         -0.04695    -0.01534    -0.00900     0.00758     0.02288
            eV          -1.2775     -0.4173     -0.2450      0.2064      0.6226
 
 
 ! grave: sending quit signal to master process
 
 
 
 
 ==============================================================================
                           electrostatic moments
 ==============================================================================

 reference point for electrostatic moments:    0.00000   0.00000   0.00000

 
              nuc           elec       ->  total
 ------------------------------------------------------------------------------
                          charge      
 ------------------------------------------------------------------------------
          60.000000     -60.000000       0.000000
 
 ------------------------------------------------------------------------------
                       dipole moment  
 ------------------------------------------------------------------------------
   x       4.479251      -5.626495      -1.147245
   y     282.038278    -286.668228      -4.629950
   z       0.229257      -0.229939      -0.000682
 
   | dipole moment | =     4.7700 a.u. =    12.1241 debye 
 
 ------------------------------------------------------------------------------
                     quadrupole moment
 ------------------------------------------------------------------------------
  xx      80.964791    -113.921452     -32.956660
  yy    3073.940831   -3184.779426    -110.838594
  zz      27.117238     -61.398647     -34.281410
  xy     -11.427833       1.708258      -9.719575
  xz       0.010943      -0.017680      -0.006737
  yz       1.042390      -1.065640      -0.023250
 
     1/3  trace=     -59.358888
     anisotropy=      79.041690
 
 ==============================================================================
 

    ridft profiling
  --------------------------------------------------------------------
             module   cpu total (s)       %  wall total (s)       %

               RIDFT           127.8  100.00           127.8  100.00
         Ridft_b_scf             5.0    3.90             5.0    3.92
        b_scf_prelim             0.0    0.00             0.0    0.00
        b_scf_molinp             0.0    0.02             0.0    0.02
         b_scf_init0             0.0    0.00             0.0    0.00
        b_scf_auxbas             0.0    0.01             0.0    0.03
      b_scf_symmetry             0.0    0.00             0.0    0.00
         b_scf_cosmo             0.0    0.00             0.0    0.00
        b_scf_params             0.5    0.42             0.5    0.42
          b_scf_ri-j             3.8    2.98             3.8    2.98
    b_scf_ri-j_auxpq             3.8    2.98             3.8    2.98
     ri-j_auxpq_chol             0.0    0.01             0.0    0.01
         b_scf_1elec             0.2    0.13             0.2    0.13
       b_scf_moinput             0.4    0.34             0.4    0.34
     moinput_orthmos             0.4    0.32             0.4    0.32
    b_scf_dft-dstmax             0.0    0.00             0.0    0.00
           Ridft_scf           122.7   96.04           122.7   96.01
          Scf_b_loop             0.0    0.00             0.0    0.00
                noga             0.0    0.00             0.0    0.00
            Scf_loop           122.4   95.79           122.4   95.75
     scf_loop_mkdmat             0.3    0.22             0.3    0.23
       scf_loop_ri-j             5.0    3.93             5.0    3.93
      parlp1.bc.dens             0.8    0.64             0.8    0.64
        parlp1.gs.gp             0.0    0.00             0.0    0.00
        parlp2.bc.gq             0.0    0.00             0.0    0.00
        scf_loop_dft           107.5   84.11           107.4   84.08
      pardft.bc.dens             0.0    0.00             0.0    0.00
        dft_grid_con             0.1    0.10             0.1    0.09
          dft_xcmrhf           104.6   81.84           104.5   81.81
          dft_getval             4.1    3.17             4.1    3.18
          funct2 dst             0.0    0.03             0.1    0.05
      funct2 f2loop1             1.5    1.14             1.4    1.13
      funct2 f2loop2             1.5    1.15             1.5    1.17
          funct2 s+c             1.0    0.78             1.0    0.76
        funct2 cmf_2             0.9    0.67             0.8    0.65
          dft_mkdens            49.8   39.00            49.8   38.99
        dft_mgga-fun             0.2    0.17             0.2    0.17
          dft_mkfock            50.4   39.42            50.3   39.40
     pardft.red.fock            11.1    8.71            11.1    8.71
     scf_loop_energy             0.0    0.01             0.0    0.00
     scf_loop_mkfock             0.0    0.00             0.0    0.01
       scf_loop_diis             1.8    1.43             1.8    1.42
       scf_loop_diag             3.0    2.33             3.0    2.34
         diag_tritrn             0.6    0.44             0.6    0.44
          diag_rdiag             2.4    1.88             2.4    1.88
     scf_loop_modump             4.2    3.31             4.2    3.30
      scf_loop_ortho             0.4    0.33             0.4    0.34
          Scf_a_loop             0.3    0.25             0.3    0.25
         Ridft_a_scf             0.1    0.05             0.1    0.07
         a_scf_fanal             0.1    0.05             0.1    0.06
 


    ------------------------------------------------------------------------
         total  cpu-time :  2 minutes and  8 seconds
         total wall-time :  2 minutes and  8 seconds
    ------------------------------------------------------------------------


   ****  ridft : all done  ****


    2017-11-07 23:34:43.656 

