Using OpenMPI from /sopt/mpi/openmpi-1.8.6/intel_15.0.3/bin/mpiexec
STARTING ridft ON 8 PROCESSORS!
RUNNING PROGRAM /beegfs/modfac/apps/TURBOMOLE/7.0_intel/bin/em64t-unknown-linux-gnu_mpi/ridft_mpi.
PLEASE WAIT UNTIL ridft HAS FINISHED.
Look for the output in slave1.output.
  this is node-proc. number 1 running on node c-7-16.local
  the total number of node-proc. spawned is            7
  parallel platform: MPP, or cluster with fast interconnect

 ridft (c-7-16.local) : TURBOMOLE V7.0( ) 6 Jul 2015 at 19:34:44
 Copyright (C) 2015 TURBOMOLE GmbH, Karlsruhe


    2017-11-09 10:35:56.310 



                                  r i d f t

                        DFT program with RI approximation 
                                for coulomb part 




                                                 
                                 References:     
                                                 
          TURBOMOLE:                             
              R. Ahlrichs, M. Baer, M. Haeser, H. Horn, and
              C. Koelmel
              Electronic structure calculations on workstation
              computers: the program system TURBOMOLE
              Chem. Phys. Lett. 162: 165 (1989)
          Density Functional:                              
              O. Treutler and R. Ahlrichs                      
              Efficient Molecular Numerical Integration Schemes
              J. Chem. Phys. 102: 346 (1995)                   
          Parallel Version:                                
              Performance of parallel TURBOMOLE for Density    
              Functional Calculations                          
              M. v. Arnim and R. Ahlrichs                      
              J. Comp. Chem. 19: 1746 (1998)                   
          RI-J Method:                                     
              Auxiliary Basis Sets to approximate Coulomb      
              Potentials                                       
              Chem. Phys. Lett. 240: 283 (1995)                
              K. Eichkorn, O. Treutler, H. Oehm, M. Haeser     
              and R. Ahlrichs                                  
              Chem. Phys. Lett. 242: 652 (1995)                
                                                           
              Auxiliary Basis Sets for Main Row Atoms and their
              Use to approximate Coulomb Potentials            
              K. Eichkorn, F. Weigend, O. Treutler and         
              R. Ahlrichs                                      
              Theo. Chem. Acc. 97: 119 (1997)                   
                                                           
              Accurate Coulomb-fitting basis sets for H to Rn 
              F. Weigend                                        
              Phys. Chem. Chem. Phys. 8: 1057 (2006)            
                                                           
          Multipole accelerated RI-J (MARI-J):             
              Fast evaluation of the Coulomb potential for     
              electron densities using multipole accelerated   
              resolution of identity approximation             
              M. Sierka, A. Hogekamp and R. Ahlrichs           
              J. Chem. Phys. 118: 9136 (2003)                  
          RI-JK Method:                                     
              A fully direct RI-HF algorithm: Implementation,
              optimised auxiliary basis sets, demonstration of
              accuracy and efficiency                         
              F. Weigend                                      
              Phys. Chem. Chem. Phys. 4: 4285 (2002)           
          Two-component HF and DFT with spin-orbit coupling:  
              Self-consistent treatment of spin-orbit         
              interactions with efficient Hartree-Fock and    
              density functional methods                      
              M. K. Armbruster, F. Weigend, C. van Wüllen and 
              W. Klopper                                      
              Phys. Chem. Chem. Phys. 10: 1748 (2008)         
          Relativistic all-electron 2c calculations           
              An efficient implementation of two-component    
              relativistic exact-decoupling methods for large 
              molecules                                       
              D. Peng, N. Middendorf, F. Weigend, M. Reiher   
              J. Chem. Phys. 138, 184105 (2013)               
                                         


 


              +--------------------------------------------------+
              |      general information about current run       |
              +--------------------------------------------------+

 

 SCF run will be profiled !


 DENSITY CONVERGENCE CHECK SWITCHED ON !
 SCF CONVERGENCE IF RMS(delta[D]) <     0.1000000000E-06

 PBE functional
 exchange:    LDA + PBE
 correlation: LDA (PW) + PBE
 A DFT calculation using the RI-J approximation will be carried out.
 Allocatable memory for RI due to $ricore (MB):       13000


              +--------------------------------------------------+
              | Atomic coordinate, charge and isotop information |
              +--------------------------------------------------+

                    atomic coordinates            atom    charge  isotop
          5.86996452   -0.78810254   -4.59530630    c      0.000     0
          7.20248184   -2.16823901   -6.37688640    c      0.000     0
          5.98856741   -4.55049025   -6.64348742    c      0.000     0
          3.94112508   -4.59330807   -5.01176180    c      0.000     0
          6.29749316    1.89636702   -3.66209586    c      0.000     0
          8.96057847    2.74243961   -4.56337073    c      0.000     0
          4.36827642    3.72189068   -4.75217594    c      0.000     0
          4.57209075    5.31103057   -6.82226676    c      0.000     0
          2.02585290   -6.66679486   -4.49609735    c      0.000     0
          2.15946136   -7.49993502   -1.68763425    c      0.000     0
          2.70692670   -8.97332811   -6.13283275    c      0.000     0
         -0.63200152   -5.82595866   -5.17165721    c      0.000     0
         -2.18946355   -6.59098894   -7.13295899    c      0.000     0
          3.89372151   -2.29167674   -3.78596449    n      0.000     0
          1.99611798    4.08040386   -3.73881470    n      0.000     0
         -1.95752617   -4.04736186   -3.79724206    n      0.000     0
         -3.88934083    4.63851548   -5.00129268    c      0.000     0
         -5.91655277    4.61016526   -6.65855596    c      0.000     0
         -7.13296347    2.22544997   -6.42853201    c      0.000     0
         -5.82189329    0.82984778   -4.64304708    c      0.000     0
         -1.98006398    6.70752328   -4.44654614    c      0.000     0
         -2.13941314    7.51253059   -1.63126705    c      0.000     0
         -2.64664291    9.03046599   -6.06599175    c      0.000     0
          0.68406046    5.87410079   -5.10627890    c      0.000     0
          2.26012976    6.65977074   -7.04443431    c      0.000     0
         -6.25980184   -1.86341403   -3.74009524    c      0.000     0
         -8.91395134   -2.69986271   -4.67609995    c      0.000     0
         -4.32008849   -3.67836241   -4.82929909    c      0.000     0
         -4.50374297   -5.24516385   -6.91821726    c      0.000     0
         -3.85582792    2.32586336   -3.79585483    n      0.000     0
          6.35509136    2.00987676   -0.79159774    c      0.000     0
          6.38393198    4.08213529    0.86217415    c      0.000     0
          6.84371750   -0.10058737    0.59846547    n      0.000     0
          6.93232982    3.14682126    3.31610643    c      0.000     0
          7.19371221    0.51967002    3.11306771    c      0.000     0
         -6.34652617   -2.00485465   -0.87169613    c      0.000     0
         -6.38973230   -4.09282910    0.76212349    c      0.000     0
         -6.85265460    0.09156322    0.53309720    n      0.000     0
         -6.96503741   -3.18148679    3.21880792    c      0.000     0
         -7.22828846   -0.55280643    3.03790760    c      0.000     0
          7.68599877   -1.36851565    5.01392803    c      0.000     0
         -7.74236889    1.31659318    4.95135086    c      0.000     0
          8.11603216   -1.00663997    7.25803698    o      0.000     0
         -8.19529203    0.93272071    7.18737116    o      0.000     0
          7.60789561   -3.76714504    3.97962708    o      0.000     0
         -7.65577469    3.72515327    3.94087855    o      0.000     0
         -8.03113817    5.75204028    5.73199356    c      0.000     0
          7.96242576   -5.81101951    5.75563576    c      0.000     0
         -7.30477860    8.19128579    4.41152112    c      0.000     0
          7.26184325   -8.23856142    4.40014961    c      0.000     0
         -7.19025594   -4.74458232    5.57157871    c      0.000     0
          7.13650369    4.68787794    5.68523712    c      0.000     0
          4.58600594    4.96070010    7.05613622    c      0.000     0
         -4.65394389   -5.02033524    6.96816596    c      0.000     0
         -5.92955308   -6.80699185    0.07893159    c      0.000     0
          5.93519977    6.80349282    0.20035783    c      0.000     0
          8.85164949   -1.53068757   -7.39867582    h      0.000     0
          6.55187314   -6.06026124   -7.89841260    h      0.000     0
          9.33024400    4.66681301   -3.91575986    h      0.000     0
          9.08001401    2.69659664   -6.62586834    h      0.000     0
         10.38969694    1.47242859   -3.78198419    h      0.000     0
          6.19978605    5.48822786   -8.04280279    h      0.000     0
          0.81560353   -9.04169106   -1.35719599    h      0.000     0
          1.71346587   -5.94894509   -0.40214217    h      0.000     0
          4.07120818   -8.17551841   -1.26458685    h      0.000     0
          2.67645418   -8.50587216   -8.14630039    h      0.000     0
          1.35288832  -10.49750305   -5.78774845    h      0.000     0
          4.60183273   -9.64301516   -5.64361998    h      0.000     0
         -1.71878451   -7.96606601   -8.56799749    h      0.000     0
          2.63838462   -1.84919387   -2.35954216    h      0.000     0
          1.29777653    3.19725815   -2.15368887    h      0.000     0
         -1.27563756   -3.18166148   -2.19525633    h      0.000     0
         -6.46427657    6.13091228   -7.90711540    h      0.000     0
         -8.76909980    1.59680151   -7.47645653    h      0.000     0
         -0.79918711    9.05132970   -1.27338991    h      0.000     0
         -1.70456878    5.94891166   -0.35731597    h      0.000     0
         -4.05515665    8.18337265   -1.21885510    h      0.000     0
         -2.59640498    8.58385089   -8.08380624    h      0.000     0
         -1.29680225   10.55162429   -5.69223925    h      0.000     0
         -4.54656696    9.69416258   -5.58824271    h      0.000     0
          1.80334213    8.05048751   -8.46884668    h      0.000     0
         -9.01288940   -2.63374126   -6.73913336    h      0.000     0
        -10.35040755   -1.43702280   -3.89654904    h      0.000     0
         -9.29055764   -4.63039482   -4.05120677    h      0.000     0
         -6.11969780   -5.40935952   -8.15603778    h      0.000     0
         -2.62015145    1.87042764   -2.35441224    h      0.000     0
          6.84377010   -1.88219370   -0.09515548    h      0.000     0
         -6.84897285    1.87950696   -0.14406925    h      0.000     0
         -6.86521845    5.38824141    7.40049927    h      0.000     0
        -10.01364555    5.75205802    6.33445922    h      0.000     0
          6.77101750   -5.46722414    7.41039772    h      0.000     0
          9.93573669   -5.81206673    6.38738499    h      0.000     0
         -5.31972216    8.14749809    3.83698402    h      0.000     0
         -7.58507625    9.79281031    5.69432847    h      0.000     0
         -8.46300115    8.49183526    2.72446370    h      0.000     0
          5.28546094   -8.19369293    3.79660748    h      0.000     0
          7.52704132   -9.85219789    5.67092503    h      0.000     0
          8.44584728   -8.51936469    2.72766080    h      0.000     0
         -7.90263773   -6.62539870    5.06055604    h      0.000     0
         -8.56688742   -3.87197527    6.84321450    h      0.000     0
          7.86134460    6.57057591    5.19899115    h      0.000     0
          8.49578883    3.79896247    6.96424046    h      0.000     0
          3.16091814    5.80012632    5.81408160    h      0.000     0
          4.77992924    6.15874131    8.73649835    h      0.000     0
          3.89335542    3.10974255    7.65139193    h      0.000     0
         -3.21203059   -5.84250685    5.73399798    h      0.000     0
         -4.86155366   -6.23481190    8.63502603    h      0.000     0
         -3.97505580   -3.17238356    7.58817529    h      0.000     0
         -6.03297554   -7.10472402   -1.96163377    h      0.000     0
         -7.31650740   -8.04446925    0.99699119    h      0.000     0
         -4.04745501   -7.42383875    0.69182890    h      0.000     0
          6.05165976    7.11906884   -1.83677978    h      0.000     0
          7.32003978    8.02906108    1.13752323    h      0.000     0
          4.05123182    7.41991947    0.80779657    h      0.000     0
          1.35323061   -1.83487764    8.35180463    c      6.000     0
          1.33432773   -1.84971329    5.72023982    c      6.000     0
         -0.05038535   -0.03022455    9.66981846    c      6.000     0
         -0.02339181   -0.01634270    4.38825803    c      6.000     0
         -1.44026825    1.78151055    8.34706624    c      6.000     0
         -1.39448303    1.81020133    5.71590596    c      6.000     0
         -0.01002541   -0.00957737    1.54688684    c      6.000     0
         -0.71244440    1.99678102    0.43861828    o      8.000     0
          0.70197594   -2.01005326    0.43554592    o      8.000     0
          2.45749504   -3.22647612    9.38068689    h      1.000     0
          2.37404005   -3.25582621    4.65113501    h      1.000     0
         -0.06095465   -0.03560796   11.72386454    h      1.000     0
         -2.55457623    3.16809886    9.37191360    h      1.000     0
         -2.42389050    3.22158305    4.64376839    h      1.000     0
 
       center of nuclear mass  :    0.00004784    0.00010488   -0.08608047
       center of nuclear charge:   -0.02662868   -0.01791347    4.90800892

              +--------------------------------------------------+
              |               basis set information              |
              +--------------------------------------------------+

              we will work with the 1s 3p 5d 7f 9g ... basis set
              ...i.e. with spherical basis functions...

   type   atoms  prim   cont   basis
   ---------------------------------------------------------------------------
    c       53     50     30   cc-pVTZ   [4s3p2d1f|18s5p2d1f]
    n        6     50     30   cc-pVTZ   [4s3p2d1f|18s5p2d1f]
    o        6     50     30   cc-pVTZ   [4s3p2d1f|18s5p2d1f]
    h       63     16     14   cc-pVTZ   [3s2p1d|5s2p1d]
   ---------------------------------------------------------------------------
   total:  128   4258   2832
   ---------------------------------------------------------------------------

   total number of primitive shells          :   86
   total number of contracted shells         : 1028
   total number of cartesian basis functions : 3220
   total number of SCF-basis functions       : 2832


 integral neglect threshold       :  0.10E-13
 integral storage threshold THIZE :  0.10E-04
 integral storage threshold THIME :         5

 RI-J AUXILIARY BASIS SET information:

              we will work with the 1s 3p 5d 7f 9g ... basis set
              ...i.e. with spherical basis functions...

   type   atoms  prim   cont   basis
   ---------------------------------------------------------------------------
    c       53     70     49   cc-pVTZ   [6s4p3d1f1g|12s5p4d2f1g]
    n        6     70     49   cc-pVTZ   [6s4p3d1f1g|12s5p4d2f1g]
    o        6     70     49   cc-pVTZ   [6s4p3d1f1g|12s5p4d2f1g]
    h       63     16     11   cc-pVTZ   [3s1p1d|5s2p1d]
   ---------------------------------------------------------------------------
   total:  128   5558   3878
   ---------------------------------------------------------------------------

   total number of primitive shells          :   80
   total number of contracted shells         : 1290
   total number of cartesian basis functions : 4721
   total number of SCF-basis functions       : 3878


 symmetry group of the molecule :   c1 

 the group has the following generators :
   c1(z)

    1 symmetry operations found

 there are 1 real representations :   a   

 maximum number of shells which are related by symmetry :  1


    mo occupation :
   irrep   mo's   occupied
    a     2832       32
 
 number of basis functions   :         2832
 number of occupied orbitals :           32
 
  
           ------------------
           density functional
           ------------------
 Dummy atoms with grid-point found.
 DFT quadrature threshold dgrenze tightened by factor 1/10.

 PBE functional
 exchange:    LDA + PBE
 correlation: LDA (PW) + PBE
 Dummy atoms with grid-point found.
 DFT quadrature threshold dgrenze tightened by factor 1/10.

 Dummy atoms with grid-point found.
 DFT quadrature threshold dgrenze tightened by factor 1/10.

 grinp -> nfun, dfgga, dfhybrid 
           6 T F
 iterations will be done with small grid
  
 spherical integration : Lebedev's spherical grid
 spherical gridsize    :           5
    i.e. gridpoints    :         590
 value for diffuse not defined
 radial integration    : Chebyshev 2nd kind (scaling 3)
 radial gridsize       :           8
 integration cells     :         128
 partition function    : becke
 partition sharpness   :           3
  
 found dummy atom(s) with basis: included in dft

 <rddim> : input of entry tasksize
           from data group '$pardft' failed !

               Default values taken

 <rddim> : input of entry memdiv
           from data group '$pardft' failed !

               Default values taken
  RIDFT: memory allocation for DFT gridpoints
  MEMORY is divided by 1 as DEFAULT
 Each node can hold at most  the            1 -th part
 of the gridpoints    

 biggest AO integral is expected to be     4.866064444
  
           ------------------------
               RI-J - INFORMATION
           ------------------------
 
 
 **************************************************
 *      MEMORY ALLOCATION FOR PARALLEL RI-DFT     *
 **************************************************
 
 
MEMORY FOR (MU NU/ ALPHA), SEQUENTIAL RUN              12885 MByte
 
            DIFFERENCE IN MEMORY NEED:       DIAG./SLAVE  
 
      TOTAL DIFFERENCE :                    435 MByte
 
      difference in xcore:                  116 MByte
      difference in fatmat:                 118 MByte
      getcor calls skipped by slaves:       202 MByte
 
 
           Integral memory available for diagonal.     12885 MByte
 
           Integral memory available for slave             0 MByte
 
         MEMORY FOR (MU NU/ ALPHA) ON DIAGONALIZER     12885 MByte
 
         MEMORY FOR (MU NU/ ALPHA) ON ONE SLAVE            0 MByte
 
         TOTAL MEMORY FOR (MU NU/ ALPHA),ALL NODES     12885 MByte
 
 Contributions to RI integral batches: 
  neglected integral batches:      305349
  direct contribution:             133375
  memory contribution:       90182
 Memory core needed for (P|Q) and Cholesky    115 MByte
 Memory core minimum needed except of (P|Q)     4 MByte
 Total minimum memory core needed (sum)       118 MByte
     number of direct tasks:         140
  
 ****************************************
 Memory allocated for RI-J 13003 MByte
 ****************************************
                                            

          ------------------------
          nuclear repulsion energy  :   392.177198517    
          ------------------------

 
          -----------------
          -S integrals
          -----------------

 1e-integrals will be neglected if expon. factor < 0.103788E-14
 
          -----------------
          -T+V integrals
          -----------------

 1e-integrals will be neglected if expon. factor < 0.103788E-14
 Difference densities >>NOT<< switched on in parallel ridft!

 automatic virtual orbital shift switched on 
      shift if e(lumo)-e(homo) < 0.10000000    


 DIIS switched on: error vector is FDS-SDF
 Max. Iterations for DIIS is     :   4
 DIIS matrix (see manual) 
    Scaling factor of diagonals  :  1.200
    threshold for scaling factor :  0.000

 scf convergence criterion : increment of total energy < .1000000D-08
                  and increment of one-electron energy < .1000000D-05


 <geterg> : there is no data group $energy 

  MOs are in ASCII format !


 reading orbital data $scfmo  from file mos . 

 orbital characterization : expanded
 
 mo provided and orthogonalized by Cholesky decomposition

 DSCF restart information will be dumped onto file mos


 Starting SCF iterations


 ITERATION  ENERGY          1e-ENERGY        2e-ENERGY     RMS[dD(SAO)]   TOL
   1  -418.21946204574    -1350.5876527     540.19099217    0.000D+00 0.104D-13
                            Exc = -56.4478071666     Coul =  596.638799338    
                              N = 64.000992397    
                            current damping = 0.700
 
          max. resid. norm for Fia-block=  4.067D-01 for orbital     20a         
          max. resid. fock norm         =  1.439D+01 for orbital   2604a         

 ITERATION  ENERGY          1e-ENERGY        2e-ENERGY     RMS[dD(SAO)]   TOL
   2  -419.64958942218    -1356.9932780     545.16649011    0.627D-03 0.104D-13
                            Exc = -56.4813023188     Coul =  601.647792425    
                              N = 64.000792827    
                            current damping = 0.650
 
          Norm of current diis error:  2.3450    
          max. resid. norm for Fia-block=  1.503D-01 for orbital      1a         
          max. resid. fock norm         =  3.740D-01 for orbital   2773a         

 ITERATION  ENERGY          1e-ENERGY        2e-ENERGY     RMS[dD(SAO)]   TOL
   3  -419.85199081475    -1359.5084664     547.47927703    0.406D-03 0.104D-13
                            Exc = -56.7610708247     Coul =  604.240347857    
                              N = 64.000718515    
                            current damping = 0.550
 
          Norm of current diis error:  1.1606    
          max. resid. norm for Fia-block=  6.086D-02 for orbital      1a         
          max. resid. fock norm         =  7.385D-02 for orbital   2775a         

 ITERATION  ENERGY          1e-ENERGY        2e-ENERGY     RMS[dD(SAO)]   TOL
   4  -419.91602308483    -1358.9778106     546.88458898    0.311D-03 0.104D-13
                            Exc = -56.6454052389     Coul =  603.529994222    
                              N = 64.000755690    
                            current damping = 0.600
 
          Norm of current diis error: 0.48349    
          max. resid. norm for Fia-block=  3.301D-02 for orbital     10a         
          max. resid. fock norm         =  5.228D-02 for orbital   2775a         

 ITERATION  ENERGY          1e-ENERGY        2e-ENERGY     RMS[dD(SAO)]   TOL
   5  -419.92616345726    -1359.7187277     547.61536569    0.100D-03 0.104D-13
                            Exc = -56.7538702042     Coul =  604.369235899    
                              N = 64.000735457    
                            current damping = 0.650
 
          Norm of current diis error: 0.23874    
          max. resid. norm for Fia-block=  8.775D-03 for orbital     29a         
          max. resid. fock norm         =  1.607D-02 for orbital     26a         
          mo-orthogonalization: Cholesky decomposition

 ITERATION  ENERGY          1e-ENERGY        2e-ENERGY     RMS[dD(SAO)]   TOL
   6  -419.92886339045    -1359.7229583     547.61689643    0.633D-04 0.104D-13
                            Exc = -56.7352695758     Coul =  604.352166002    
                              N = 64.000745803    
                            current damping = 0.500
 
          Norm of current diis error: 0.93300E-01
          max. resid. norm for Fia-block=  4.234D-03 for orbital     29a         
          max. resid. fock norm         =  5.624D-03 for orbital     29a         

 ITERATION  ENERGY          1e-ENERGY        2e-ENERGY     RMS[dD(SAO)]   TOL
   7  -419.92924458159    -1359.5142081     547.40776500    0.363D-04 0.104D-13
                            Exc = -56.7232784983     Coul =  604.131043497    
                              N = 64.000755353    
                            current damping = 0.550
 
          Norm of current diis error: 0.58730E-01
          max. resid. norm for Fia-block=  2.065D-03 for orbital     10a         
          max. resid. fock norm         =  4.318D-03 for orbital     22a         

 ITERATION  ENERGY          1e-ENERGY        2e-ENERGY     RMS[dD(SAO)]   TOL
   8  -419.92939085649    -1359.6094300     547.50284060    0.880D-05 0.104D-13
                            Exc = -56.7321063563     Coul =  604.234946960    
                              N = 64.000751958    
                            current damping = 0.600
 
          Norm of current diis error: 0.11429E-01
          max. resid. norm for Fia-block=  5.127D-04 for orbital     10a         
          max. resid. fock norm         =  1.053D-03 for orbital     22a         

 ITERATION  ENERGY          1e-ENERGY        2e-ENERGY     RMS[dD(SAO)]   TOL
   9  -419.92939681964    -1359.6480156     547.54142026    0.256D-05 0.104D-13
                            Exc = -56.7346490641     Coul =  604.276069322    
                              N = 64.000750823    
                            current damping = 0.450
 
          Norm of current diis error: 0.49491E-02
          max. resid. norm for Fia-block=  2.418D-04 for orbital     31a         
          max. resid. fock norm         =  4.304D-04 for orbital    921a         

 ITERATION  ENERGY          1e-ENERGY        2e-ENERGY     RMS[dD(SAO)]   TOL
  10  -419.92939748497    -1359.6313426     547.52474664    0.219D-05 0.104D-13
                            Exc = -56.7331177397     Coul =  604.257864383    
                              N = 64.000751667    
                            current damping = 0.500
 
          Norm of current diis error: 0.39378E-02
          max. resid. norm for Fia-block=  1.751D-04 for orbital     30a         
          max. resid. fock norm         =  2.699D-04 for orbital   2775a         
          mo-orthogonalization: Cholesky decomposition

 ITERATION  ENERGY          1e-ENERGY        2e-ENERGY     RMS[dD(SAO)]   TOL
  11  -419.92939795223    -1359.6313785     547.52478199    0.661D-06 0.104D-13
                            Exc = -56.7337114716     Coul =  604.258493457    
                              N = 64.000751506    
                            current damping = 0.550
 
          Norm of current diis error: 0.21153E-02
          max. resid. norm for Fia-block=  8.195D-05 for orbital     30a         
          max. resid. fock norm         =  1.354D-04 for orbital     22a         

 ITERATION  ENERGY          1e-ENERGY        2e-ENERGY     RMS[dD(SAO)]   TOL
  12  -419.92939808374    -1359.6355316     547.52893502    0.372D-06 0.104D-13
                            Exc = -56.7339678535     Coul =  604.262902876    
                              N = 64.000751373    
                            current damping = 0.400
 
          Norm of current diis error: 0.11578E-02
          max. resid. norm for Fia-block=  5.567D-05 for orbital     30a         
          max. resid. fock norm         =  7.247D-05 for orbital   2765a         

 ITERATION  ENERGY          1e-ENERGY        2e-ENERGY     RMS[dD(SAO)]   TOL
  13  -419.92939812263    -1359.6355619     547.52896527    0.252D-06 0.104D-13
                            Exc = -56.7338032774     Coul =  604.262768549    
                              N = 64.000751424    
                            current damping = 0.250
 
          Norm of current diis error: 0.69918E-03
          max. resid. norm for Fia-block=  2.628D-05 for orbital     30a         
          max. resid. fock norm         =  3.837D-05 for orbital   2765a         

 ITERATION  ENERGY          1e-ENERGY        2e-ENERGY     RMS[dD(SAO)]   TOL
  14  -419.92939813573    -1359.6347886     547.52819195    0.117D-06 0.104D-13
                            Exc = -56.7337988569     Coul =  604.261990809    
                              N = 64.000751437    
                            current damping = 0.300
 
          Norm of current diis error: 0.41884E-03
          max. resid. norm for Fia-block=  1.029D-05 for orbital     30a         
          max. resid. fock norm         =  1.592D-05 for orbital   2769a         

 DENSITY CONVERGED !


 ITERATION  ENERGY          1e-ENERGY        2e-ENERGY     RMS[dD(SAO)]   TOL
  15  -419.92939814315    -1359.6348885     547.52829180    0.562D-07 0.104D-13
                            Exc = -56.7338111040     Coul =  604.262102902    
                              N = 64.000751431    
                            current damping = 0.350
 
          Norm of current diis error: 0.76969E-04
          max. resid. norm for Fia-block=  3.655D-06 for orbital     29a         
          max. resid. fock norm         =  7.082D-06 for orbital   2769a         
          mo-orthogonalization: Cholesky decomposition

 DENSITY CONVERGED !


 ITERATION  ENERGY          1e-ENERGY        2e-ENERGY     RMS[dD(SAO)]   TOL
  16  -419.92939814314    -1359.6350189     547.52842223    0.150D-07 0.104D-13
                            Exc = -56.7338276210     Coul =  604.262249849    
                              N = 64.000751425    
                            current damping = 0.200
 
          Norm of current diis error: 0.76342E-04
          max. resid. norm for Fia-block=  1.928D-06 for orbital     30a         
          max. resid. fock norm         =  2.744D-06 for orbital   2765a         
          irrep a   : virtual orbitals shifted by    0.00246

 ENERGY & DENSITY CONVERGED !


 ITERATION  ENERGY          1e-ENERGY        2e-ENERGY     RMS[dD(SAO)]   TOL
  17  -419.92931035795    -1359.6350415     547.52853261    0.911D-08 0.104D-13
                            Exc = -56.7337359423     Coul =  604.262268555    
                              N = 63.999894942    
                            current damping = 0.050
 
          Norm of current diis error: 0.26737E-04
          max. resid. norm for Fia-block=  7.072D-07 for orbital     30a         
          max. resid. fock norm         =  1.004D-06 for orbital   2765a         

 End of SCF iterations

   convergence criteria satisfied after   17 iterations


                  ------------------------------------------ 
                 |  total energy      =   -419.92931035795  |
                  ------------------------------------------ 
                 :  kinetic energy    =    417.37594790085  :
                 :  potential energy  =   -837.30525825879  :
                 :  virial theorem    =      1.99391954218  :
                 :  wavefunction norm =      1.00000000000  :
                  .......................................... 


 <geterg> : there is no data group $energy 


 <skperg> : $end is missing 


 orbitals $scfmo  will be written to file mos

    irrep                 28a         29a         30a         31a         32a   
 eigenvalues H         -0.10037    -0.08618    -0.02783    -0.02080     0.00107
            eV          -2.7313     -2.3451     -0.7573     -0.5661      0.0292
 occupation              2.0000      2.0000      2.0000      2.0000      2.0000 

    irrep                 33a         34a         35a         36a         37a   
 eigenvalues H          0.08236     0.09146     0.10698     0.11817     0.12543
            eV           2.2410      2.4889      2.9112      3.2157      3.4132
 

    !!!!!!!!!!!!!!!!!!!!!!!!!!!!!!!!!!!!!!!!!!!!!!!!!!!!!!!!!!!!!!!!!!!!!!!
    !                                                                     !
    ! WARNING : ORBITAL ENERGIES SHOULD BE NEGATIVE FOR OCCUPIED ORBITALS !
    !                                                                     !
    !      orbital energy (   0.00107) of occupied MO  32a    is > 0      !
    !!!!!!!!!!!!!!!!!!!!!!!!!!!!!!!!!!!!!!!!!!!!!!!!!!!!!!!!!!!!!!!!!!!!!!!

 
 ! grave: sending quit signal to master process
 
 
 
 
 ==============================================================================
                           electrostatic moments
 ==============================================================================

 reference point for electrostatic moments:    0.00000   0.00000   0.00000

 
              nuc           elec       ->  total
 ------------------------------------------------------------------------------
                          charge      
 ------------------------------------------------------------------------------
          63.000000     -64.000000      -1.000000
 
 ------------------------------------------------------------------------------
                       dipole moment  
 ------------------------------------------------------------------------------
   x      -1.677607       1.687485       0.009878
   y      -1.128548       1.136669       0.008120
   z     309.204562    -310.544208      -1.339646
 
   | dipole moment | =     1.3397 a.u. =     3.4052 debye 
 
 ------------------------------------------------------------------------------
                     quadrupole moment
 ------------------------------------------------------------------------------
  xx      77.885779    -119.660724     -41.774945
  yy     185.087434    -231.142322     -46.054889
  zz    2279.377001   -2331.977493     -52.600492
  xy    -114.462790     114.768602       0.305811
  xz     -11.852078      11.908374       0.056297
  yz      -7.573923       7.598476       0.024553
 
     1/3  trace=     -46.810109
     anisotropy=       9.458833
 
 ==============================================================================
 

    ridft profiling
  --------------------------------------------------------------------
             module   cpu total (s)       %  wall total (s)       %

               RIDFT          5391.0  100.00          5391.7  100.00
         Ridft_b_scf          1766.3   32.76          1764.9   32.73
        b_scf_prelim             0.0    0.00             0.0    0.00
        b_scf_molinp             0.0    0.00             0.0    0.00
         b_scf_init0             0.0    0.00             0.0    0.00
        b_scf_auxbas             0.0    0.00             0.0    0.00
      b_scf_symmetry             0.0    0.00             0.0    0.00
         b_scf_cosmo             0.0    0.00             0.0    0.00
        b_scf_params          1127.0   20.91          1126.2   20.89
          b_scf_ri-j           611.9   11.35           611.4   11.34
    b_scf_ri-j_auxpq           611.8   11.35           611.3   11.34
     ri-j_auxpq_chol             5.8    0.11             5.8    0.11
         b_scf_1elec             1.3    0.02             1.3    0.02
       b_scf_moinput            26.1    0.48            26.0    0.48
     moinput_orthmos            25.9    0.48            25.9    0.48
    b_scf_dft-dstmax             0.0    0.00             0.0    0.00
           Ridft_scf          3624.0   67.22          3626.0   67.25
          Scf_b_loop             0.0    0.00             0.0    0.00
                noga             0.0    0.00             0.0    0.00
            Scf_loop          3620.8   67.16          3622.7   67.19
     scf_loop_mkdmat             5.2    0.10             5.2    0.10
       scf_loop_ri-j           447.9    8.31           447.5    8.30
      parlp1.bc.dens             1.3    0.02             1.3    0.02
        parlp1.gs.gp             0.0    0.00             0.0    0.00
        parlp2.bc.gq             0.0    0.00             0.0    0.00
        scf_loop_dft          2819.5   52.30          2821.8   52.34
      pardft.bc.dens             0.0    0.00             0.0    0.00
        dft_grid_con            67.3    1.25            67.2    1.25
           dft_xcrhf          2542.7   47.16          2545.1   47.20
          dft_getval           465.5    8.64           467.1    8.66
          funct2 dst             3.6    0.07             3.5    0.07
      funct2 f2loop1            52.4    0.97            52.7    0.98
      funct2 f2loop2           361.9    6.71           362.9    6.73
          funct2 s+c            39.6    0.73            40.0    0.74
        funct2 cmf_2            36.9    0.68            37.3    0.69
          dft_mkdens           981.3   18.20           982.0   18.21
         dft_gga-fun             1.1    0.02             1.1    0.02
          dft_mkfock          1050.1   19.48          1050.4   19.48
     pardft.red.fock           446.1    8.27           446.1    8.27
     scf_loop_energy             0.1    0.00             0.1    0.00
     scf_loop_mkfock             0.2    0.00             0.1    0.00
       scf_loop_diis           147.7    2.74           147.6    2.74
       scf_loop_diag           125.7    2.33           125.7    2.33
         diag_tritrn            44.7    0.83            44.7    0.83
          diag_rdiag            80.7    1.50            80.6    1.50
     scf_loop_modump            46.3    0.86            46.5    0.86
      scf_loop_ortho            26.6    0.49            26.6    0.49
          Scf_a_loop             3.2    0.06             3.3    0.06
         Ridft_a_scf             0.7    0.01             0.7    0.01
         a_scf_fanal             0.6    0.01             0.6    0.01
 


    ------------------------------------------------------------------------
         total  cpu-time :  1 hours 29 minutes and 55 seconds
         total wall-time :  1 hours 29 minutes and 56 seconds
    ------------------------------------------------------------------------


   ****  ridft : all done  ****


    2017-11-09 12:05:52.099 

