 operating system is UNIX !

 ridft (c-13-221.gp.local) : TURBOMOLE V7.2 ( 21285 ) 30 Jun 2017 at 11:51:10
 Copyright (C) 2017 TURBOMOLE GmbH, Karlsruhe


    2018-02-07 23:02:16.229 



                                  r i d f t

                        DFT program with RI approximation 
                                for coulomb part 




                                                 
                                 References:     
                                                 
          TURBOMOLE:                             
              R. Ahlrichs, M. Baer, M. Haeser, H. Horn, and
              C. Koelmel
              Electronic structure calculations on workstation
              computers: the program system TURBOMOLE
              Chem. Phys. Lett. 162: 165 (1989)
          Density Functional:                              
              O. Treutler and R. Ahlrichs                      
              Efficient Molecular Numerical Integration Schemes
              J. Chem. Phys. 102: 346 (1995)                   
          Parallel Version:                                
              Performance of parallel TURBOMOLE for Density    
              Functional Calculations                          
              M. v. Arnim and R. Ahlrichs                      
              J. Comp. Chem. 19: 1746 (1998)                   
          RI-J Method:                                     
              Auxiliary Basis Sets to approximate Coulomb      
              Potentials                                       
              Chem. Phys. Lett. 240: 283 (1995)                
              K. Eichkorn, O. Treutler, H. Oehm, M. Haeser     
              and R. Ahlrichs                                  
              Chem. Phys. Lett. 242: 652 (1995)                
                                                           
              Auxiliary Basis Sets for Main Row Atoms and their
              Use to approximate Coulomb Potentials            
              K. Eichkorn, F. Weigend, O. Treutler and         
              R. Ahlrichs                                      
              Theo. Chem. Acc. 97: 119 (1997)                   
                                                           
              Accurate Coulomb-fitting basis sets for H to Rn 
              F. Weigend                                        
              Phys. Chem. Chem. Phys. 8: 1057 (2006)            
                                                           
          Multipole accelerated RI-J (MARI-J):             
              Fast evaluation of the Coulomb potential for     
              electron densities using multipole accelerated   
              resolution of identity approximation             
              M. Sierka, A. Hogekamp and R. Ahlrichs           
              J. Chem. Phys. 118: 9136 (2003)                  
          RI-JK Method:                                     
              A fully direct RI-HF algorithm: Implementation,
              optimised auxiliary basis sets, demonstration of
              accuracy and efficiency                         
              F. Weigend                                      
              Phys. Chem. Chem. Phys. 4: 4285 (2002)           
          Two-component HF and DFT with spin-orbit coupling:  
              Self-consistent treatment of spin-orbit         
              interactions with efficient Hartree-Fock and    
              density functional methods                      
              M. K. Armbruster, F. Weigend, C. van Wüllen and 
              W. Klopper                                      
              Phys. Chem. Chem. Phys. 10: 1748 (2008)         
          Relativistic all-electron 2c calculations           
              An efficient implementation of two-component    
              relativistic exact-decoupling methods for large 
              molecules                                       
              D. Peng, N. Middendorf, F. Weigend, M. Reiher   
              J. Chem. Phys. 138, 184105 (2013)               
                                         




              +--------------------------------------------------+
              |      general information about current run       |
              +--------------------------------------------------+

 

 DENSITY CONVERGENCE CHECK SWITCHED ON !
 SCF CONVERGENCE IF RMS(delta[D]) <     0.1000000000E-06

 TPSS meta-GGA functional
 exchange:    LDA + TPSS
 correlation: LDA (PW) + TPSS
 A DFT calculation using the RI-J approximation will be carried out.
 Allocatable memory for RI due to $ricore (MB):                  8000


              +--------------------------------------------------+
              | Atomic coordinate, charge and isotop information |
              +--------------------------------------------------+

                    atomic coordinates            atom    charge  isotop
         -3.02021322   -5.57287040    6.14160993    c      0.000     0
         -7.55992498   -5.49254003    6.14160993    c      0.000     0
         -7.57917751   -2.96661681    6.14160993    c      0.000     0
         -5.13872849   -1.73612541    6.14160993    c      0.000     0
         -5.34962382   -6.77813772    6.14160993    n      0.000     0
         -3.01397334   -3.02330859    6.14160993    n      0.000     0
         -5.01381949    0.76047871    6.14160993    n      0.000     0
         -1.13019040   -6.85880446    6.14160993    o      0.000     0
         -5.30378284   -8.65690911    6.14160993    h      0.000     0
         -9.25454067   -6.60873133    6.14160993    h      0.000     0
         -9.30421779   -1.90668642    6.14160993    h      0.000     0
         -6.57529074    1.79538156    6.14160993    h      0.000     0
         -3.32233507    1.63396871    6.14160993    h      0.000     0
          2.02057455    2.09509212    6.14160993    c      0.000     0
          4.31882924   -1.93152310    6.14160993    c      0.000     0
          6.52909072    1.59570364    6.14160993    c      0.000     0
          4.48320895    3.19202901    6.14160993    c      0.000     0
          7.66977287    5.57318976    6.14160993    c      0.000     0
          2.15879290   -0.53650459    6.14160993    n      0.000     0
          6.57508098   -0.94499535    6.14160993    n      0.000     0
          5.26063662    5.68364992    6.14160993    n      0.000     0
          8.57326795    3.13252153    6.14160993    n      0.000     0
          4.03373759   -4.43966966    6.14160993    n      0.000     0
         -0.02458345    3.12065405    6.14160993    o      0.000     0
          0.48192174   -1.43893196    6.14160993    h      0.000     0
          8.92516519    7.16093010    6.14160993    h      0.000     0
         10.36302946    2.57112358    6.14160993    h      0.000     0
          5.59543373   -5.47388087    6.14160993    h      0.000     0
          2.33979087   -5.28069984    6.14160993    h      0.000     0
         -2.86614385    0.50730076    0.00000000    c      6.000     0
         -2.35868435   -4.10118003    0.00000000    c      6.000     0
         -6.22007703   -2.54675178    0.00000000    c      6.000     0
         -5.50322076   -0.05275926    0.00000000    c      6.000     0
         -9.48081459    0.00062550    0.00000000    c      6.000     0
         -1.43115007   -1.70294749    0.00000000    n      7.000     0
         -4.76389754   -4.62925266    0.00000000    n      7.000     0
         -7.59671039    1.50604370    0.00000000    n      7.000     0
         -8.77716940   -2.50497750    0.00000000    n      7.000     0
         -0.65378855   -5.96273979    0.00000000    n      7.000     0
         -1.81438653    2.53911162    0.00000000    o      8.000     0
          0.45590021   -1.44738660    0.00000000    h      1.000     0
        -11.42969860    0.54723256    0.00000000    h      1.000     0
         -9.89513516   -4.01115348    0.00000000    h      1.000     0
         -1.30933455   -7.71737697    0.00000000    h      1.000     0
          1.21098753   -5.64747111    0.00000000    h      1.000     0
          5.71905583   -2.73330933    0.00000000    c      6.000     0
          9.34454077    0.00005480    0.00000000    c      6.000     0
          7.87541665    2.05488631    0.00000000    c      6.000     0
          5.17778724    1.61591426    0.00000000    c      6.000     0
          8.31202654   -2.33919749    0.00000000    n      7.000     0
          4.21541208   -0.67433743    0.00000000    n      7.000     0
          3.60926731    3.56229061    0.00000000    n      7.000     0
          4.94584793   -4.88457923    0.00000000    o      8.000     0
          9.37925504   -3.88610085    0.00000000    h      1.000     0
         11.37159519    0.09310681    0.00000000    h      1.000     0
          8.64799150    3.92634068    0.00000000    h      1.000     0
          4.26422182    5.31735297    0.00000000    h      1.000     0
          1.72740244    3.27472720    0.00000000    h      1.000     0
 
       center of nuclear mass  :    0.31843654   -0.98004659    3.07080497
       center of nuclear charge:   -0.00000025   -1.09604124    0.00000000

              +--------------------------------------------------+
              |               basis set information              |
              +--------------------------------------------------+

              we will work with the 1s 3p 5d 7f 9g ... basis set
              ...i.e. with spherical basis functions...

   type   atoms  prim   cont   basis
   ---------------------------------------------------------------------------
    c       18     50     30   cc-pVTZ   [4s3p2d1f|18s5p2d1f]
    n       16     50     30   cc-pVTZ   [4s3p2d1f|18s5p2d1f]
    o        4     50     30   cc-pVTZ   [4s3p2d1f|18s5p2d1f]
    h       20     16     14   cc-pVTZ   [3s2p1d|5s2p1d]
   ---------------------------------------------------------------------------
   total:   58   2220   1420
   ---------------------------------------------------------------------------

   total number of primitive shells          :   86
   total number of contracted shells         :  500
   total number of cartesian basis functions : 1630
   total number of SCF-basis functions       : 1420


 integral neglect threshold       :  0.20E-13
 integral storage threshold THIZE :  0.10E-04
 integral storage threshold THIME :         5

 RI-J AUXILIARY BASIS SET information:

              we will work with the 1s 3p 5d 7f 9g ... basis set
              ...i.e. with spherical basis functions...

   type   atoms  prim   cont   basis
   ---------------------------------------------------------------------------
    c       18     70     49   cc-pVTZ   [6s4p3d1f1g|12s5p4d2f1g]
    n       16     70     49   cc-pVTZ   [6s4p3d1f1g|12s5p4d2f1g]
    o        4     70     49   cc-pVTZ   [6s4p3d1f1g|12s5p4d2f1g]
    h       20     16     11   cc-pVTZ   [3s1p1d|5s2p1d]
   ---------------------------------------------------------------------------
   total:   58   2980   2082
   ---------------------------------------------------------------------------

   total number of primitive shells          :   80
   total number of contracted shells         :  670
   total number of cartesian basis functions : 2558
   total number of SCF-basis functions       : 2082


 symmetry group of the molecule :   c1 

 the group has the following generators :
   c1(z)

    1 symmetry operations found

 there are 1 real representations :   a   

 maximum number of shells which are related by symmetry :  1


    mo occupation :
   irrep   mo's   occupied
    a     1420       68
 
 number of basis functions   :                   1420
 number of occupied orbitals :                     68
 
  
           ------------------
           density functional
           ------------------
 Dummy atoms with grid-point found.
 DFT quadrature threshold dgrenze tightened by factor 1/10.

 TPSS meta-GGA functional
 exchange:    LDA + TPSS
 correlation: LDA (PW) + TPSS
 Dummy atoms with grid-point found.
 DFT quadrature threshold dgrenze tightened by factor 1/10.

 Dummy atoms with grid-point found.
 DFT quadrature threshold dgrenze tightened by factor 1/10.


 iterations will be done with small grid
  
 spherical integration : Lebedev's spherical grid
 spherical gridsize    :                     5
    i.e. gridpoints    :                   590
 value for diffuse not defined
 radial integration    : Chebyshev 2nd kind (scaling 3)
 radial gridsize       :                     8
 integration cells     :                    58
 partition function    : becke
 partition sharpness   :                     3
  
 found dummy atom(s) with basis: included in dft

 biggest AO integral is expected to be     4.866064444
  
           ------------------------
               RI-J - INFORMATION
           ------------------------
 Contributions to RI integral batches: 
  neglected integral batches:                 54249
  direct contribution:                        21998
  memory contribution:                 49003
 Memory core needed for (P|Q) and Cholesky     34 MByte
 Memory core minimum needed except of (P|Q)     4 MByte
 Total minimum memory core needed (sum)        37 MByte
  
 ****************************************
 Memory allocated for RI-J  6636 MByte
 ****************************************
                                            

          ------------------------
          nuclear repulsion energy  :   1391.97690407    
          ------------------------


         -----------------
         -S,T+V- integrals
         -----------------

 1e-integrals will be neglected if expon. factor < 0.205028E-14
 
   Difference densities algorithm switched on.
   The maximal number of linear combinations of
   difference densities is                    20 .

 DIIS switched on: error vector is FDS-SDF
 Max. Iterations for DIIS is     :   4
 DIIS matrix (see manual) 
    Scaling factor of diagonals  :  1.200
    threshold for scaling factor :  0.000

 scf convergence criterion : increment of total energy < .1000000D-08
                  and increment of one-electron energy < .1000000D-05

  MOs are in ASCII format !


 automatic virtual orbital shift switched on 
      shift if e(lumo)-e(homo) < 0.10000000    


 reading orbital data $scfmo  from file mos
 orbital characterization : expanded
 mo provided and orthogonalized by Cholesky decomposition

 DSCF restart information will be dumped onto file mos


 Starting SCF iterations

          Overall gridpoints after grid construction =        369017

 ITERATION  ENERGY          1e-ENERGY        2e-ENERGY     RMS[dD(SAO)]   TOL
   1  -934.03551764671    -4020.1456129     1694.1331912    0.000D+00 0.204D-13
                            Exc = -124.907189870     Coul =  1819.04038104    
                              N = 135.99943499    
                            current damping = 0.700
 
          max. resid. norm for Fia-block=  3.616D-01 for orbital     57a         
          max. resid. fock norm         =  1.308D+01 for orbital   1313a         

 ITERATION  ENERGY          1e-ENERGY        2e-ENERGY     RMS[dD(SAO)]   TOL
   2  -937.34156340532    -4035.0308689     1705.7124014    0.184D-02 0.137D-13
                            Exc = -125.126490603     Coul =  1830.83889202    
                              N = 135.99951924    
                            current damping = 0.650
 
          Norm of current diis error:  3.7458    
          max. resid. norm for Fia-block=  1.627D-01 for orbital      2a         
          max. resid. fock norm         =  3.241D-01 for orbital   1372a         

 ITERATION  ENERGY          1e-ENERGY        2e-ENERGY     RMS[dD(SAO)]   TOL
   3  -937.83286640826    -4039.8503034     1710.0405329    0.102D-02 0.105D-13
                            Exc = -125.643779537     Coul =  1835.68431243    
                              N = 135.99956482    
                            current damping = 0.550
 
          Norm of current diis error:  1.8067    
          max. resid. norm for Fia-block=  6.405D-02 for orbital      2a         
          max. resid. fock norm         =  6.909D-02 for orbital   1367a         

 ITERATION  ENERGY          1e-ENERGY        2e-ENERGY     RMS[dD(SAO)]   TOL
   4  -937.97937082746    -4040.5772677     1710.6209928    0.792D-03 0.870D-14
                            Exc = -125.586520563     Coul =  1836.20751333    
                              N = 135.99956816    
                            current damping = 0.450
 
          Norm of current diis error: 0.75805    
          max. resid. norm for Fia-block=  3.618D-02 for orbital     57a         
          max. resid. fock norm         =  6.715D-02 for orbital   1266a         

 ITERATION  ENERGY          1e-ENERGY        2e-ENERGY     RMS[dD(SAO)]   TOL
   5  -937.99941492306    -4041.5096927     1711.5333737    0.340D-03 0.811D-14
                            Exc = -125.756634949     Coul =  1837.29000868    
                              N = 135.99957348    
                            current damping = 0.350
 
          Norm of current diis error: 0.48325    
          max. resid. norm for Fia-block=  1.881D-02 for orbital     66a         
          max. resid. fock norm         =  2.353D-02 for orbital     66a         
          mo-orthogonalization: Cholesky decomposition

 ITERATION  ENERGY          1e-ENERGY        2e-ENERGY     RMS[dD(SAO)]   TOL
   6  -938.01014760229    -4041.9681888     1711.9811371    0.241D-03 0.770D-14
                            Exc = -125.740826349     Coul =  1837.72196345    
                              N = 135.99957526    
                            current damping = 0.200
 
          Norm of current diis error: 0.15124    
          max. resid. norm for Fia-block=  5.386D-03 for orbital     59a         
          max. resid. fock norm         =  9.238D-03 for orbital   1266a         

 ITERATION  ENERGY          1e-ENERGY        2e-ENERGY     RMS[dD(SAO)]   TOL
   7  -938.01054040113    -4041.5596128     1711.5721683    0.942D-04 0.756D-14
                            Exc = -125.724830548     Coul =  1837.29699888    
                              N = 135.99957000    
                            current damping = 0.250
 
          Norm of current diis error: 0.12948    
          max. resid. norm for Fia-block=  2.895D-03 for orbital     68a         
          max. resid. fock norm         =  5.085D-03 for orbital   1388a         

 ITERATION  ENERGY          1e-ENERGY        2e-ENERGY     RMS[dD(SAO)]   TOL
   8  -938.01129087549    -4041.6969673     1711.7087724    0.389D-04 0.751D-14
                            Exc = -125.732756720     Coul =  1837.44152909    
                              N = 135.99957253    
                            current damping = 0.300
 
          Norm of current diis error: 0.27281E-01
          max. resid. norm for Fia-block=  1.043D-03 for orbital     63a         
          max. resid. fock norm         =  1.563D-03 for orbital     23a         

 ITERATION  ENERGY          1e-ENERGY        2e-ENERGY     RMS[dD(SAO)]   TOL
   9  -938.01129677091    -4041.8100260     1711.8218251    0.123D-04 0.750D-14
                            Exc = -125.741459281     Coul =  1837.56328441    
                              N = 135.99957290    
                            current damping = 0.150
 
          Norm of current diis error: 0.23902E-01
          max. resid. norm for Fia-block=  5.765D-04 for orbital     67a         
          max. resid. fock norm         =  9.487D-04 for orbital     22a         

 ITERATION  ENERGY          1e-ENERGY        2e-ENERGY     RMS[dD(SAO)]   TOL
  10  -938.01131615513    -4041.7771183     1711.7888981    0.929D-05 0.746D-14
                            Exc = -125.738010836     Coul =  1837.52690894    
                              N = 135.99957268    
                            current damping = 0.200
 
          Norm of current diis error: 0.12513E-01
          max. resid. norm for Fia-block=  2.711D-04 for orbital     54a         
          max. resid. fock norm         =  4.421D-04 for orbital     22a         
          mo-orthogonalization: Cholesky decomposition

 ITERATION  ENERGY          1e-ENERGY        2e-ENERGY     RMS[dD(SAO)]   TOL
  11  -938.01132262725    -4041.7682873     1711.7800606    0.325D-05 0.744D-14
                            Exc = -125.737696073     Coul =  1837.51775664    
                              N = 135.99957272    
                            current damping = 0.050
 
          Norm of current diis error: 0.26075E-02
          max. resid. norm for Fia-block=  9.136D-05 for orbital     68a         
          max. resid. fock norm         =  1.384D-04 for orbital     36a         

 ITERATION  ENERGY          1e-ENERGY        2e-ENERGY     RMS[dD(SAO)]   TOL
  12  -938.01132248788    -4041.7633917     1711.7751652    0.112D-05 0.741D-14
                            Exc = -125.737714744     Coul =  1837.51287990    
                              N = 135.99957267    
                            current damping = 0.100
 
          Norm of current diis error: 0.31819E-02
          max. resid. norm for Fia-block=  4.801D-05 for orbital     68a         
          max. resid. fock norm         =  6.953D-05 for orbital     36a         

 ITERATION  ENERGY          1e-ENERGY        2e-ENERGY     RMS[dD(SAO)]   TOL
  13  -938.01132289461    -4041.7673205     1711.7790935    0.590D-06 0.740D-14
                            Exc = -125.737683347     Coul =  1837.51677684    
                              N = 135.99957270    
                            current damping = 0.150
 
          Norm of current diis error: 0.65597E-03
          max. resid. norm for Fia-block=  1.711D-05 for orbital     57a         
          max. resid. fock norm         =  2.521D-05 for orbital   1399a         

 ITERATION  ENERGY          1e-ENERGY        2e-ENERGY     RMS[dD(SAO)]   TOL
  14  -938.01132290521    -4041.7672555     1711.7790285    0.182D-06 0.739D-14
                            Exc = -125.737755278     Coul =  1837.51678376    
                              N = 135.99957270    
                            current damping = 0.200
 
          Norm of current diis error: 0.41340E-03
          max. resid. norm for Fia-block=  8.053D-06 for orbital     62a         
          max. resid. fock norm         =  1.468D-05 for orbital   1399a         

 ITERATION  ENERGY          1e-ENERGY        2e-ENERGY     RMS[dD(SAO)]   TOL
  15  -938.01132291158    -4041.7673664     1711.7791395    0.106D-06 0.737D-14
                            Exc = -125.737719768     Coul =  1837.51685922    
                              N = 135.99957270    
                            current damping = 0.250
 
          Norm of current diis error: 0.12158E-03
          max. resid. norm for Fia-block=  3.778D-06 for orbital     65a         
          max. resid. fock norm         =  6.482D-06 for orbital     23a         
          mo-orthogonalization: Cholesky decomposition

 DENSITY CONVERGED !


 ITERATION  ENERGY          1e-ENERGY        2e-ENERGY     RMS[dD(SAO)]   TOL
  16  -938.01132291183    -4041.7674034     1711.7791764    0.435D-07 0.735D-14
                            Exc = -125.737708078     Coul =  1837.51688451    
                              N = 135.99957270    
                            current damping = 0.100
 
          Norm of current diis error: 0.85755E-04
          max. resid. norm for Fia-block=  2.348D-06 for orbital     65a         
          max. resid. fock norm         =  3.888D-06 for orbital   1390a         

 DENSITY CONVERGED !


 ITERATION  ENERGY          1e-ENERGY        2e-ENERGY     RMS[dD(SAO)]   TOL
  17  -938.01132291219    -4041.7673762     1711.7791492    0.263D-07 0.735D-14
                            Exc = -125.737720582     Coul =  1837.51686978    
                              N = 135.99957270    
                            current damping = 0.150
 
          Norm of current diis error: 0.31143E-04
          max. resid. norm for Fia-block=  9.660D-07 for orbital     65a         
          max. resid. fock norm         =  1.544D-06 for orbital   1389a         

 ENERGY & DENSITY CONVERGED !

          Overall gridpoints after grid construction =        923678

 ITERATION  ENERGY          1e-ENERGY        2e-ENERGY     RMS[dD(SAO)]   TOL
  18  -938.01099777663    -4041.7673789     1711.7794770    0.109D-07 0.734D-14
                            Exc = -125.737393059     Coul =  1837.51687008    
                              N = 136.00006544    
                            current damping = 0.200
 
          Norm of current diis error: 0.15880E-04
          max. resid. norm for Fia-block=  2.922D-07 for orbital     54a         
          max. resid. fock norm         =  5.178D-07 for orbital   1396a         

 End of SCF iterations

   convergence criteria satisfied after   18 iterations


                  ------------------------------------------ 
                 |  total energy      =   -938.01099777663  |
                  ------------------------------------------ 
                 :  kinetic energy    =    934.08928970567  :
                 :  potential energy  =  -1872.10028748230  :
                 :  virial theorem    =      1.99581912357  :
                 :  wavefunction norm =      1.00000000000  :
                  .......................................... 


 <geterg> : there is no data group $energy 


 <skperg> : $end is missing 


 orbitals $scfmo  will be written to file mos

    irrep                 64a         65a         66a         67a         68a   
 eigenvalues H         -0.22836    -0.22424    -0.21499    -0.20655    -0.16818
            eV          -6.2140     -6.1019     -5.8502     -5.6205     -4.5765
 occupation              2.0000      2.0000      2.0000      2.0000      2.0000 

    irrep                 69a         70a         71a         72a         73a   
 eigenvalues H         -0.07003    -0.02376    -0.01439    -0.00323    -0.00132
            eV          -1.9055     -0.6467     -0.3916     -0.0879     -0.0360
 
 
 
 
 ==============================================================================
                           electrostatic moments
 ==============================================================================

 reference point for electrostatic moments:    0.00000   0.00000   0.00000

 
              nuc           elec       ->  total
 ------------------------------------------------------------------------------
                          charge      
 ------------------------------------------------------------------------------
         136.000000    -136.000000      -0.000000
 
 ------------------------------------------------------------------------------
                       dipole moment  
 ------------------------------------------------------------------------------
   x      -0.000034       2.242983       2.242949
   y    -149.061609     148.702874      -0.358735
   z       0.000000      -0.079814      -0.079814
 
   | dipole moment | =     2.2729 a.u. =     5.7770 debye 
 
 ------------------------------------------------------------------------------
                     quadrupole moment
 ------------------------------------------------------------------------------
  xx    4874.835189   -4919.522333     -44.687144
  yy    1258.439663   -1335.600830     -77.161167
  zz       0.000000     -82.442301     -82.442301
  xy     238.934914    -226.700625      12.234289
  xz       0.000000       0.041470       0.041470
  yz       0.000000       0.128975       0.128975
 
     1/3  trace=     -68.096871
     anisotropy=      41.267914
 
 ==============================================================================
 


    ------------------------------------------------------------------------
         total  cpu-time : 58 minutes and 47 seconds
         total wall-time :  1 hours  1 minutes and 14 seconds
    ------------------------------------------------------------------------

   ****  ridft : all done  ****


    2018-02-08 00:03:30.154 

