           Doing BLAS/Lapack in the master proc. with  8 CPUs.
           SMPCPUS    set: Shared-memory Parallelization with   8 CPUs.

           SMP Parallelization Reference:
           C. van Wullen, J. Comput. Chem. 32 (2011) 1195--1201
 operating system is UNIX !

 ridft (c-5-10.gp.local) : TURBOMOLE V7.2 ( 21454 ) 4 Oct 2017 at 12:48:15
 Copyright (C) 2017 TURBOMOLE GmbH, Karlsruhe


    2018-04-28 20:54:10.979 



                                  r i d f t

                        DFT program with RI approximation 
                                for coulomb part 




                                                 
                                 References:     
                                                 
          TURBOMOLE:                             
              R. Ahlrichs, M. Baer, M. Haeser, H. Horn, and
              C. Koelmel
              Electronic structure calculations on workstation
              computers: the program system TURBOMOLE
              Chem. Phys. Lett. 162: 165 (1989)
          Density Functional:                              
              O. Treutler and R. Ahlrichs                      
              Efficient Molecular Numerical Integration Schemes
              J. Chem. Phys. 102: 346 (1995)                   
          Parallel Version:                                
              Performance of parallel TURBOMOLE for Density    
              Functional Calculations                          
              M. v. Arnim and R. Ahlrichs                      
              J. Comp. Chem. 19: 1746 (1998)                   
          RI-J Method:                                     
              Auxiliary Basis Sets to approximate Coulomb      
              Potentials                                       
              Chem. Phys. Lett. 240: 283 (1995)                
              K. Eichkorn, O. Treutler, H. Oehm, M. Haeser     
              and R. Ahlrichs                                  
              Chem. Phys. Lett. 242: 652 (1995)                
                                                           
              Auxiliary Basis Sets for Main Row Atoms and their
              Use to approximate Coulomb Potentials            
              K. Eichkorn, F. Weigend, O. Treutler and         
              R. Ahlrichs                                      
              Theo. Chem. Acc. 97: 119 (1997)                   
                                                           
              Accurate Coulomb-fitting basis sets for H to Rn 
              F. Weigend                                        
              Phys. Chem. Chem. Phys. 8: 1057 (2006)            
                                                           
          Multipole accelerated RI-J (MARI-J):             
              Fast evaluation of the Coulomb potential for     
              electron densities using multipole accelerated   
              resolution of identity approximation             
              M. Sierka, A. Hogekamp and R. Ahlrichs           
              J. Chem. Phys. 118: 9136 (2003)                  
          RI-JK Method:                                     
              A fully direct RI-HF algorithm: Implementation,
              optimised auxiliary basis sets, demonstration of
              accuracy and efficiency                         
              F. Weigend                                      
              Phys. Chem. Chem. Phys. 4: 4285 (2002)           
          Two-component HF and DFT with spin-orbit coupling:  
              Self-consistent treatment of spin-orbit         
              interactions with efficient Hartree-Fock and    
              density functional methods                      
              M. K. Armbruster, F. Weigend, C. van Wüllen and 
              W. Klopper                                      
              Phys. Chem. Chem. Phys. 10: 1748 (2008)         
          Relativistic all-electron 2c calculations           
              An efficient implementation of two-component    
              relativistic exact-decoupling methods for large 
              molecules                                       
              D. Peng, N. Middendorf, F. Weigend, M. Reiher   
              J. Chem. Phys. 138, 184105 (2013)               
                                         




              +--------------------------------------------------+
              |      general information about current run       |
              +--------------------------------------------------+

 

 DENSITY CONVERGENCE CHECK SWITCHED ON !
 SCF CONVERGENCE IF RMS(delta[D]) <     0.1000000000E-06

 PBE functional
 exchange:    LDA + PBE
 correlation: LDA (PW) + PBE
 A DFT calculation using the RI-J approximation will be carried out.
 Allocatable memory for RI due to $ricore (MB):                  5000


              +--------------------------------------------------+
              | Atomic coordinate, charge and isotop information |
              +--------------------------------------------------+

                    atomic coordinates            atom    charge  isotop
         -1.32695823   -0.10593853    0.01878815    o      8.000     0
         -1.93166525    1.60017432   -0.02171052    h      1.000     0
          0.48664428    0.07959809    0.00986248    h      1.000     0
 
       center of nuclear mass  :   -1.25931974   -0.00009951    0.01602283
       center of nuclear charge:   -1.20606868    0.08322642    0.01384572

              +--------------------------------------------------+
              |               basis set information              |
              +--------------------------------------------------+

              we will work with the 1s 3p 5d 7f 9g ... basis set
              ...i.e. with spherical basis functions...

   type   atoms  prim   cont   basis
   ---------------------------------------------------------------------------
    o        1     50     30   cc-pVTZ   [4s3p2d1f|18s5p2d1f]
    h        2     16     14   cc-pVTZ   [3s2p1d|5s2p1d]
   ---------------------------------------------------------------------------
   total:    3     82     58
   ---------------------------------------------------------------------------

   total number of primitive shells          :   34
   total number of contracted shells         :   22
   total number of cartesian basis functions :   65
   total number of SCF-basis functions       :   58


 integral neglect threshold       :  0.51E-12
 integral storage threshold THIZE :  0.10E-04
 integral storage threshold THIME :         5

 RI-J AUXILIARY BASIS SET information:

              we will work with the 1s 3p 5d 7f 9g ... basis set
              ...i.e. with spherical basis functions...

   type   atoms  prim   cont   basis
   ---------------------------------------------------------------------------
    o        1     70     49   cc-pVTZ   [6s4p3d1f1g|12s5p4d2f1g]
    h        2     16     11   cc-pVTZ   [3s1p1d|5s2p1d]
   ---------------------------------------------------------------------------
   total:    3    102     71
   ---------------------------------------------------------------------------

   total number of primitive shells          :   32
   total number of contracted shells         :   25
   total number of cartesian basis functions :   85
   total number of SCF-basis functions       :   71


 symmetry group of the molecule :   c1 

 the group has the following generators :
   c1(z)

    1 symmetry operations found

 there are 1 real representations :   a   

 maximum number of shells which are related by symmetry :  1


    mo occupation :
   irrep   mo's   occupied
    a       58        5
 
 number of basis functions   :                     58
 number of occupied orbitals :                      5
 
  
           ------------------
           density functional
           ------------------
 PBE functional
 exchange:    LDA + PBE
 correlation: LDA (PW) + PBE

 iterations will be done with small grid
  
 spherical integration : Lebedev's spherical grid
 spherical gridsize    :                     5
    i.e. gridpoints    :                   590
 value for diffuse not defined
 radial integration    : Chebyshev 2nd kind (scaling 3)
 radial gridsize       :                     8
 integration cells     :                     3
 partition function    : becke
 partition sharpness   :                     3
  

 biggest AO integral is expected to be     4.866064444
  
           ------------------------
               RI-J - INFORMATION
           ------------------------
 Contributions to RI integral batches: 
  neglected integral batches:                     0
  direct contribution:                            0
  memory contribution:                   253
 Memory core needed for (P|Q) and Cholesky      1 MByte
 Memory core minimum needed except of (P|Q)     1 MByte
 Total minimum memory core needed (sum)         1 MByte
  
 ****************************************
 Memory allocated for RI-J     2 MByte
 ****************************************
                                            

          ------------------------
          nuclear repulsion energy  :   9.15671409308    
          ------------------------


         -----------------
         -S,T+V- integrals
         -----------------

 1e-integrals will be neglected if expon. factor < 0.514148E-13
 Difference densities >>NOT<< switched on in parallel ridft!

 DIIS switched on: error vector is FDS-SDF
 Max. Iterations for DIIS is     :   4
 DIIS matrix (see manual) 
    Scaling factor of diagonals  :  1.200
    threshold for scaling factor :  0.000

 scf convergence criterion : increment of total energy < .1000000D-08
                  and increment of one-electron energy < .1000000D-05

  MOs are in ASCII format !


 automatic virtual orbital shift switched on 
      shift if e(lumo)-e(homo) < 0.10000000    


 reading orbital data $scfmo  from file mos
 orbital characterization : expanded
 mo provided and orthogonalized by Cholesky decomposition

 DSCF restart information will be dumped onto file mos


 Starting SCF iterations

          Overall gridpoints after grid construction =         13739

 ITERATION  ENERGY          1e-ENERGY        2e-ENERGY     RMS[dD(SAO)]   TOL
   1  -76.127439882307    -124.36048546     39.076331483    0.000D+00 0.513D-12
                            Exc = -9.42781982694     Coul =  48.5041513095    
                              N = 10.000002512    
                            current damping = 0.700
 
          max. resid. norm for Fia-block=  3.060D-01 for orbital      4a         
          max. resid. fock norm         =  4.610D+00 for orbital     56a         

 ITERATION  ENERGY          1e-ENERGY        2e-ENERGY     RMS[dD(SAO)]   TOL
   2  -76.331745180825    -123.12871549     37.640256216    0.619D-02 0.513D-12
                            Exc = -9.24005786912     Coul =  46.8803140852    
                              N = 10.000002519    
                            current damping = 0.650
 
          Norm of current diis error: 0.83917    
          max. resid. norm for Fia-block=  1.328D-01 for orbital      1a         
          max. resid. fock norm         =  1.442D-01 for orbital     37a         

 ITERATION  ENERGY          1e-ENERGY        2e-ENERGY     RMS[dD(SAO)]   TOL
   3  -76.363802150179    -123.27797680     37.757460558    0.285D-02 0.513D-12
                            Exc = -9.27312025064     Coul =  47.0305808087    
                              N = 10.000002479    
                            current damping = 0.600
 
          Norm of current diis error: 0.37519    
          max. resid. norm for Fia-block=  5.541D-02 for orbital      1a         
          max. resid. fock norm         =  5.765D-02 for orbital      1a         

 ITERATION  ENERGY          1e-ENERGY        2e-ENERGY     RMS[dD(SAO)]   TOL
   4  -76.371724112777    -123.00666967     37.478231466    0.173D-02 0.513D-12
                            Exc = -9.24247634504     Coul =  46.7207078108    
                              N = 10.000002451    
                            current damping = 0.650
 
          Norm of current diis error: 0.13735    
          max. resid. norm for Fia-block=  2.048D-02 for orbital      1a         
          max. resid. fock norm         =  2.380D-02 for orbital     37a         

 ITERATION  ENERGY          1e-ENERGY        2e-ENERGY     RMS[dD(SAO)]   TOL
   5  -76.372868632708    -123.08361642     37.554033692    0.731D-03 0.513D-12
                            Exc = -9.25599421180     Coul =  46.8100279042    
                              N = 10.000002446    
                            current damping = 0.700
 
          Norm of current diis error: 0.55244E-01
          max. resid. norm for Fia-block=  8.390D-03 for orbital      1a         
          max. resid. fock norm         =  8.724D-03 for orbital      1a         
          mo-orthogonalization: Cholesky decomposition

 ITERATION  ENERGY          1e-ENERGY        2e-ENERGY     RMS[dD(SAO)]   TOL
   6  -76.373082598571    -123.04889088     37.519094190    0.323D-03 0.513D-12
                            Exc = -9.25239212022     Coul =  46.7714863100    
                              N = 10.000002441    
                            current damping = 0.750
 
          Norm of current diis error: 0.21820E-01
          max. resid. norm for Fia-block=  3.418D-03 for orbital      1a         
          max. resid. fock norm         =  3.712D-03 for orbital     37a         

 ITERATION  ENERGY          1e-ENERGY        2e-ENERGY     RMS[dD(SAO)]   TOL
   7  -76.373115064398    -123.05376312     37.523933964    0.127D-03 0.513D-12
                            Exc = -9.25352514373     Coul =  46.7774591076    
                              N = 10.000002439    
                            current damping = 0.800
 
          Norm of current diis error: 0.93018E-02
          max. resid. norm for Fia-block=  1.473D-03 for orbital      1a         
          max. resid. fock norm         =  1.529D-03 for orbital      1a         

 ITERATION  ENERGY          1e-ENERGY        2e-ENERGY     RMS[dD(SAO)]   TOL
   8  -76.373121271358    -123.05184267     37.522007304    0.560D-04 0.513D-12
                            Exc = -9.25346149023     Coul =  46.7754687944    
                              N = 10.000002438    
                            current damping = 0.850
 
          Norm of current diis error: 0.41255E-02
          max. resid. norm for Fia-block=  6.523D-04 for orbital      1a         
          max. resid. fock norm         =  7.110D-04 for orbital     37a         

 ITERATION  ENERGY          1e-ENERGY        2e-ENERGY     RMS[dD(SAO)]   TOL
   9  -76.373122423468    -123.05282863     37.522992118    0.235D-04 0.513D-12
                            Exc = -9.25367991408     Coul =  46.7766720325    
                              N = 10.000002438    
                            current damping = 0.900
 
          Norm of current diis error: 0.18942E-02
          max. resid. norm for Fia-block=  3.042D-04 for orbital      1a         
          max. resid. fock norm         =  3.166D-04 for orbital      1a         

 ITERATION  ENERGY          1e-ENERGY        2e-ENERGY     RMS[dD(SAO)]   TOL
  10  -76.373122678310    -123.05180092     37.521964147    0.114D-04 0.513D-12
                            Exc = -9.25357804116     Coul =  46.7755421878    
                              N = 10.000002437    
                            current damping = 0.950
 
          Norm of current diis error: 0.94054E-03
          max. resid. norm for Fia-block=  1.421D-04 for orbital      1a         
          max. resid. fock norm         =  1.822D-04 for orbital     37a         
          mo-orthogonalization: Cholesky decomposition

 ITERATION  ENERGY          1e-ENERGY        2e-ENERGY     RMS[dD(SAO)]   TOL
  11  -76.373122730491    -123.05239046     37.522553632    0.472D-05 0.513D-12
                            Exc = -9.25367458787     Coul =  46.7762282201    
                              N = 10.000002437    
                            current damping = 1.000
 
          Norm of current diis error: 0.43644E-03
          max. resid. norm for Fia-block=  7.027D-05 for orbital      1a         
          max. resid. fock norm         =  7.317D-05 for orbital      1a         

 ITERATION  ENERGY          1e-ENERGY        2e-ENERGY     RMS[dD(SAO)]   TOL
  12  -76.373122743818    -123.05218116     37.522344321    0.245D-05 0.513D-12
                            Exc = -9.25365414514     Coul =  46.7759984662    
                              N = 10.000002437    
                            current damping = 1.050
 
          Norm of current diis error: 0.21392E-03
          max. resid. norm for Fia-block=  3.487D-05 for orbital      1a         
          max. resid. fock norm         =  3.827D-05 for orbital     37a         

 ITERATION  ENERGY          1e-ENERGY        2e-ENERGY     RMS[dD(SAO)]   TOL
  13  -76.373122746743    -123.05221528     37.522378443    0.109D-05 0.513D-12
                            Exc = -9.25366250504     Coul =  46.7760409476    
                              N = 10.000002437    
                            current damping = 1.100
 
          Norm of current diis error: 0.10768E-03
          max. resid. norm for Fia-block=  1.795D-05 for orbital      1a         
          max. resid. fock norm         =  1.862D-05 for orbital      1a         

 ITERATION  ENERGY          1e-ENERGY        2e-ENERGY     RMS[dD(SAO)]   TOL
  14  -76.373122747506    -123.05220342     37.522366579    0.559D-06 0.513D-12
                            Exc = -9.25366275443     Coul =  46.7760293331    
                              N = 10.000002437    
                            current damping = 1.150
 
          Norm of current diis error: 0.56787E-04
          max. resid. norm for Fia-block=  9.365D-06 for orbital      1a         
          max. resid. fock norm         =  1.069D-05 for orbital     37a         

 ITERATION  ENERGY          1e-ENERGY        2e-ENERGY     RMS[dD(SAO)]   TOL
  15  -76.373122747705    -123.05221719     37.522380351    0.274D-06 0.513D-12
                            Exc = -9.25366555079     Coul =  46.7760459021    
                              N = 10.000002437    
                            current damping = 1.200
 
          Norm of current diis error: 0.29969E-04
          max. resid. norm for Fia-block=  5.067D-06 for orbital      1a         
          max. resid. fock norm         =  5.277D-06 for orbital      1a         
          mo-orthogonalization: Cholesky decomposition

 ITERATION  ENERGY          1e-ENERGY        2e-ENERGY     RMS[dD(SAO)]   TOL
  16  -76.373122747764    -123.05220418     37.522367336    0.156D-06 0.513D-12
                            Exc = -9.25366427585     Coul =  46.7760316120    
                              N = 10.000002437    
                            current damping = 1.250
 
          Norm of current diis error: 0.17062E-04
          max. resid. norm for Fia-block=  2.733D-06 for orbital      1a         
          max. resid. fock norm         =  3.412D-06 for orbital     37a         

 DENSITY CONVERGED !


 ITERATION  ENERGY          1e-ENERGY        2e-ENERGY     RMS[dD(SAO)]   TOL
  17  -76.373122747780    -123.05221161     37.522374772    0.745D-07 0.513D-12
                            Exc = -9.25366553105     Coul =  46.7760403028    
                              N = 10.000002437    
                            current damping = 1.300
 
          Norm of current diis error: 0.89700E-05
          max. resid. norm for Fia-block=  1.535D-06 for orbital      1a         
          max. resid. fock norm         =  1.597D-06 for orbital      1a         

 ENERGY & DENSITY CONVERGED !

          Overall gridpoints after grid construction =         46225

 ITERATION  ENERGY          1e-ENERGY        2e-ENERGY     RMS[dD(SAO)]   TOL
  18  -76.373126094271    -123.05220924     37.522369057    0.434D-07 0.513D-12
                            Exc = -9.25366869252     Coul =  46.7760377492    
                              N = 9.9999999809    
                            current damping = 1.350
 
          Norm of current diis error: 0.51270E-05
          max. resid. norm for Fia-block=  8.630D-07 for orbital      1a         
          max. resid. fock norm         =  9.714D-07 for orbital     37a         

 End of SCF iterations

   convergence criteria satisfied after    18 iterations


                  ------------------------------------------ 
                 |  total energy      =    -76.37312609427  |
                  ------------------------------------------ 
                 :  kinetic energy    =     76.01580938215  :
                 :  potential energy  =   -152.38893547642  :
                 :  virial theorem    =      1.99532143399  :
                 :  wavefunction norm =      1.00000000000  :
                  .......................................... 


 <geterg> : there is no data group $energy 


 <skperg> : $end is missing 


 orbitals $scfmo  will be written to file mos

    irrep                  1a          2a          3a          4a          5a   
 eigenvalues H        -18.73943    -0.91714    -0.46938    -0.32777    -0.24854
            eV        -509.9299    -24.9568    -12.7725     -8.9191     -6.7631
 occupation              2.0000      2.0000      2.0000      2.0000      2.0000 

    irrep                  6a          7a          8a          9a         10a   
 eigenvalues H          0.00838     0.08107     0.33607     0.38445     0.46480
            eV           0.2281      2.2060      9.1449     10.4614     12.6481
 
 
 
 
 ==============================================================================
                           electrostatic moments
 ==============================================================================

 reference point for electrostatic moments:    0.00000   0.00000   0.00000

 
              nuc           elec       ->  total
 ------------------------------------------------------------------------------
                          charge      
 ------------------------------------------------------------------------------
          10.000000     -10.000000       0.000000
 
 ------------------------------------------------------------------------------
                       dipole moment  
 ------------------------------------------------------------------------------
   x     -12.060687      12.457630       0.396943
   y       0.832264      -0.207681       0.624583
   z       0.138457      -0.154771      -0.016314
 
   | dipole moment | =     0.7402 a.u. =     1.8815 debye 
 
 ------------------------------------------------------------------------------
                     quadrupole moment
 ------------------------------------------------------------------------------
  xx      18.054699     -22.662013      -4.607314
  yy       2.656678      -6.774886      -4.118209
  zz       0.003393      -5.482566      -5.479174
  xy      -1.927657       0.618716      -1.308941
  xz      -0.152712       0.187957       0.035246
  yz      -0.049879       0.027669      -0.022210
 
     1/3  trace=      -4.734899
     anisotropy=       2.563393
 
 ==============================================================================
 


    ------------------------------------------------------------------------
         total  cpu-time :   9.78 seconds
         total wall-time :   1.01 seconds
    ------------------------------------------------------------------------

   ****  ridft : all done  ****


    2018-04-28 20:54:11.977 

