
OPTIMIZATION CYCLE 13
Mon Feb 15 05:25:49 PST 2016
 operating system is UNIX !
 hostname is         c-8-35.local

 statpt (c-8-35.local) : TURBOMOLE V7.0.2( ) 8 Jan 2016 at 10:54:38
 Copyright (C) 2016 TURBOMOLE GmbH, Karlsruhe


    2016-02-15 05:25:49.152 



                           this is S T A T P T   


                     hessian and coordinate update for
                          stationary point search 

                     by barbara unterreiner, marek sierka,
                           and reinhart ahlrichs

                          quantum chemistry group
                          universitaet  karlsruhe
                                  germany


  Keyword $statpt not found - using default options
 
        ***************  Stationary point options ******************
        ************************************************************
           Maximum allowed trust radius:           3.000000E-01
           Minimum allowed trust radius:           1.000000E-03
           Initial trust radius:                   1.500000E-01
           GDIIS used if gradient norm <           1.000000E-02
           Number of previous steps for GDIIS:       5
           Hessian update method:                  BFGS
                        *** Convergence criteria ***                
           Threshold for energy change:            1.000000E-07
           Threshold for max displacement element: 1.000000E-03
           Threshold for max gradient element :    1.000000E-04
           Threshold for RMS of displacement:      5.000000E-04
           Threshold for RMS of gradient:          5.000000E-04
        ************************************************************
 
  actual coordinates :
        -6.366790983133         1.547714673654        -2.055802361284
        -4.532471884649         2.309554397710        -0.032566256662
        -4.629232402034         4.231625892464         1.195919347223
        -2.721347899015         0.541005308051         0.256408522346
        -0.869780165404         1.105838248414         2.175605267832
         1.045582520240        -1.007817752555         2.162337237071
         2.385282528033        -1.413029172959        -0.358674508124
         3.713965807697         0.970575227398        -1.267799933039
         4.262707718760        -3.577671187174        -0.115354754484
        -7.763696469788         3.026233659108        -2.303433008476
        -7.294144693066        -0.208767561564        -1.523770406608
        -5.365586271465         1.219575730991        -3.821058718025
        -0.028095598558         2.935190740409         1.764288988444
        -1.824777459675         1.250077467938         3.992084474835
         0.110317509534        -2.758263399174         2.725030035004
         2.452745390470        -0.582506896095         3.615688184663
         0.961720582559        -1.937990811073        -1.756385870393
         5.049561624149         1.644392430496         0.154147535171
         4.772962906936         0.595763603009        -2.994167876019
         2.388998851988         2.492902961867        -1.670811144305
         5.735423110492        -3.105611474679         1.250389333837
         3.337936310118        -5.303854314492         0.524521204055
         5.178718965810        -3.974937771743        -1.916595293060
  actual gradients :
         0.000002047872        -0.000001177863        -0.000000257235
        -0.000010648624         0.000003439950        -0.000004797538
         0.000003201974        -0.000000812694         0.000002184596
         0.000000906752         0.000000698910        -0.000000512851
         0.000008320048        -0.000001984267         0.000007988194
         0.000000290829         0.000000526812         0.000000859594
        -0.000000501395         0.000001954997        -0.000001265413
         0.000000604603        -0.000002198567         0.000001669018
         0.000000993128        -0.000000266262         0.000001539010
         0.000000384622         0.000001340479         0.000001093348
         0.000000575565        -0.000000576853        -0.000001370553
        -0.000000212327        -0.000000878332         0.000000137574
        -0.000004479594         0.000001158442        -0.000003235896
        -0.000002964410        -0.000002664954        -0.000000942362
        -0.000004182051         0.000001205579         0.000000600832
        -0.000000312374        -0.000000233984         0.000000029991
        -0.000000456188        -0.000001610091         0.000000814718
        -0.000001092795         0.000000665606         0.000001930570
        -0.000000814649         0.000001612017         0.000000432063
         0.000000851309         0.000001151817         0.000000690091
         0.000000054847        -0.000000029507         0.000000317970
        -0.000000938508         0.000000239428        -0.000000507605
        -0.000000359926         0.000000489401         0.000000510500
     Number of symmetry restricted degrees of freedom:    69
     Constituted by:     3 translational degrees of freedom
                         3 rotational degrees of freedom
                      63 internal degrees of freedom

  *************************************************************************
   ATOM                      CARTESIAN COORDINATES
    1 c      -6.36679098313287      1.54771467365355     -2.05580236128420
    2 c      -4.53247188464853      2.30955439770994     -0.03256625666237
    3 o      -4.62923240203366      4.23162589246398      1.19591934722347
    4 o      -2.72134789901478      0.54100530805070      0.25640852234595
    5 c      -0.86978016540383      1.10583824841403      2.17560526783162
    6 c       1.04558252024013     -1.00781775255466      2.16233723707062
    7 c       2.38528252803285     -1.41302917295934     -0.35867450812374
    8 c       3.71396580769665      0.97057522739798     -1.26779993303914
    9 c       4.26270771876036     -3.57767118717356     -0.11535475448353
   10 h      -7.76369646978842      3.02623365910777     -2.30343300847621
   11 h      -7.29414469306582     -0.20876756156407     -1.52377040660814
   12 h      -5.36558627146517      1.21957573099129     -3.82105871802470
   13 h      -0.02809559855840      2.93519074040927      1.76428898844371
   14 h      -1.82477745967504      1.25007746793805      3.99208447483469
   15 h       0.11031750953430     -2.75826339917377      2.72503003500429
   16 h       2.45274539046959     -0.58250689609545      3.61568818466262
   17 h       0.96172058255936     -1.93799081107341     -1.75638587039308
   18 h       5.04956162414880      1.64439243049599      0.15414753517055
   19 h       4.77296290693646      0.59576360300923     -2.99416787601912
   20 h       2.38899885198808      2.49290296186656     -1.67081114430459
   21 h       5.73542311049177     -3.10561147467853      1.25038933383656
   22 h       3.33793631011763     -5.30385431449202      0.52452120405521
   23 h       5.17871896581042     -3.97493777174349     -1.91659529306037
  *************************************************************************
   ATOM                      CARTESIAN GRADIENTS  
    1 c       0.00000204787243     -0.00000117786346     -0.00000025723531
    2 c      -0.00001064862374      0.00000343995039     -0.00000479753793
    3 o       0.00000320197360     -0.00000081269420      0.00000218459554
    4 o       0.00000090675227      0.00000069891034     -0.00000051285069
    5 c       0.00000832004838     -0.00000198426729      0.00000798819410
    6 c       0.00000029082937      0.00000052681227      0.00000085959364
    7 c      -0.00000050139505      0.00000195499712     -0.00000126541291
    8 c       0.00000060460313     -0.00000219856703      0.00000166901760
    9 c       0.00000099312811     -0.00000026626198      0.00000153900992
   10 h       0.00000038462189      0.00000134047941      0.00000109334790
   11 h       0.00000057556458     -0.00000057685253     -0.00000137055283
   12 h      -0.00000021232686     -0.00000087833237      0.00000013757376
   13 h      -0.00000447959391      0.00000115844192     -0.00000323589632
   14 h      -0.00000296441049     -0.00000266495398     -0.00000094236201
   15 h      -0.00000418205102      0.00000120557855      0.00000060083224
   16 h      -0.00000031237449     -0.00000023398364      0.00000002999110
   17 h      -0.00000045618775     -0.00000161009137      0.00000081471792
   18 h      -0.00000109279492      0.00000066560570      0.00000193056970
   19 h      -0.00000081464887      0.00000161201655      0.00000043206348
   20 h       0.00000085130929      0.00000115181687      0.00000069009132
   21 h       0.00000005484673     -0.00000002950666      0.00000031797002
   22 h      -0.00000093850789      0.00000023942752     -0.00000050760467
   23 h      -0.00000035992568      0.00000048940067      0.00000051049975
  *************************************************************************

  norm of actual CARTESIAN gradient:  2.04371E-05
  norm of actual INTERNAL  gradient:  1.71371E-05

  ENERGY =    -426.3423940062 a.u.; # of cycle =   13

  Approximate Hessian read from $hessapprox data section

  Hessian updated according to BFGS formula
  Number of zero Hessian eigenvalues:   0
  Number of structures for GDIIS interpolation:    5
  GDIIS step:     0.000414

  Transforming internal coordinate displacements to Cartesian space
      Iteration   1 residual norm     4.142673E-04
      Iteration   2 residual norm     9.287156E-08
      Iteration   3 residual norm     7.617370E-15
      Transformation converged
      Residual norm:    7.617370E-15 after    3 iterations

      ****************************************************************** 
                          CONVERGENCE INFORMATION

                               Converged?     Value      Criterion
             Energy change         yes      0.0000000   0.0000001
             RMS of displacement   yes      0.0000522   0.0005000
             RMS of gradient       yes      0.0000022   0.0005000
             MAX displacement      yes      0.0003732   0.0010000
             MAX gradient          yes      0.0000080   0.0001000
      ****************************************************************** 


    ------------------------------------------------------------------------
         total  cpu-time :   0.05 seconds
         total wall-time :   0.05 seconds
    ------------------------------------------------------------------------


   ****  statpt : all done  ****


    2016-02-15 05:25:49.192 

fine, there is no data group "$actual step"
next step = ridft
 operating system is UNIX !
 hostname is         c-8-35.local

 ridft (c-8-35.local) : TURBOMOLE V7.0.2( ) 8 Jan 2016 at 10:54:38
 Copyright (C) 2016 TURBOMOLE GmbH, Karlsruhe


    2016-02-15 05:25:49.229 



                                  r i d f t

                        DFT program with RI approximation 
                                for coulomb part 




                                                 
                                 References:     
                                                 
          TURBOMOLE:                             
              R. Ahlrichs, M. Baer, M. Haeser, H. Horn, and
              C. Koelmel
              Electronic structure calculations on workstation
              computers: the program system TURBOMOLE
              Chem. Phys. Lett. 162: 165 (1989)
          Density Functional:                              
              O. Treutler and R. Ahlrichs                      
              Efficient Molecular Numerical Integration Schemes
              J. Chem. Phys. 102: 346 (1995)                   
          Parallel Version:                                
              Performance of parallel TURBOMOLE for Density    
              Functional Calculations                          
              M. v. Arnim and R. Ahlrichs                      
              J. Comp. Chem. 19: 1746 (1998)                   
          RI-J Method:                                     
              Auxiliary Basis Sets to approximate Coulomb      
              Potentials                                       
              Chem. Phys. Lett. 240: 283 (1995)                
              K. Eichkorn, O. Treutler, H. Oehm, M. Haeser     
              and R. Ahlrichs                                  
              Chem. Phys. Lett. 242: 652 (1995)                
                                                           
              Auxiliary Basis Sets for Main Row Atoms and their
              Use to approximate Coulomb Potentials            
              K. Eichkorn, F. Weigend, O. Treutler and         
              R. Ahlrichs                                      
              Theo. Chem. Acc. 97: 119 (1997)                   
                                                           
              Accurate Coulomb-fitting basis sets for H to Rn 
              F. Weigend                                        
              Phys. Chem. Chem. Phys. 8: 1057 (2006)            
                                                           
          Multipole accelerated RI-J (MARI-J):             
              Fast evaluation of the Coulomb potential for     
              electron densities using multipole accelerated   
              resolution of identity approximation             
              M. Sierka, A. Hogekamp and R. Ahlrichs           
              J. Chem. Phys. 118: 9136 (2003)                  
          RI-JK Method:                                     
              A fully direct RI-HF algorithm: Implementation,
              optimised auxiliary basis sets, demonstration of
              accuracy and efficiency                         
              F. Weigend                                      
              Phys. Chem. Chem. Phys. 4: 4285 (2002)           
          Two-component HF and DFT with spin-orbit coupling:  
              Self-consistent treatment of spin-orbit         
              interactions with efficient Hartree-Fock and    
              density functional methods                      
              M. K. Armbruster, F. Weigend, C. van Wüllen and 
              W. Klopper                                      
              Phys. Chem. Chem. Phys. 10: 1748 (2008)         
          Relativistic all-electron 2c calculations           
              An efficient implementation of two-component    
              relativistic exact-decoupling methods for large 
              molecules                                       
              D. Peng, N. Middendorf, F. Weigend, M. Reiher   
              J. Chem. Phys. 138, 184105 (2013)               
                                         


 


              +--------------------------------------------------+
              |      general information about current run       |
              +--------------------------------------------------+

 

 DENSITY CONVERGENCE CHECK SWITCHED ON !
 SCF CONVERGENCE IF RMS(delta[D]) <     0.1000000000E-06

 TPSS meta-GGA functional
 exchange:    LDA + TPSS
 correlation: LDA (PW) + TPSS
 A DFT calculation using the RI-J approximation will be carried out.
 Allocatable memory for RI due to $ricore (MB):         500


              +--------------------------------------------------+
              | Atomic coordinate, charge and isotop information |
              +--------------------------------------------------+

                    atomic coordinates            atom    charge  isotop
         -6.36673285    1.54784286   -2.05583573    c      6.000     0
         -4.53241004    2.30958984   -0.03255768    c      6.000     0
         -4.62916897    4.23164024    1.19596847    o      8.000     0
         -2.72135777    0.54099259    0.25642257    o      8.000     0
         -0.86980457    1.10572876    2.17564074    c      6.000     0
          1.04555504   -1.00794016    2.16233739    c      6.000     0
          2.38526689   -1.41310057   -0.35867289    c      6.000     0
          3.71376301    0.97058080   -1.26787819    c      6.000     0
          4.26284225   -3.57760347   -0.11531419    c      6.000     0
         -7.76336684    3.02656883   -2.30375211    h      1.000     0
         -7.29444731   -0.20839268   -1.52361000    h      1.000     0
         -5.36546884    1.21928725   -3.82098021    h      1.000     0
         -0.02803688    2.93506219    1.76441396    h      1.000     0
         -1.82479089    1.24994912    3.99212888    h      1.000     0
          0.11034327   -2.75841866    2.72501030    h      1.000     0
          2.45271300   -0.58263051    3.61569539    h      1.000     0
          0.96173361   -1.93817536   -1.75637014    h      1.000     0
          5.04928460    1.64457662    0.15405341    h      1.000     0
          4.77282566    0.59576519   -2.99420596    h      1.000     0
          2.38865548    2.49276120   -1.67098339    h      1.000     0
          5.73552839   -3.10539543    1.25041032    h      1.000     0
          3.33820310   -5.30383347    0.52462874    h      1.000     0
          5.17887064   -3.97485516   -1.91654967    h      1.000     0
 
       center of nuclear mass  :   -0.87698100    0.54409185    0.21015652
       center of nuclear charge:   -0.73974012    0.45949889    0.17646298

              +--------------------------------------------------+
              |               basis set information              |
              +--------------------------------------------------+

              we will work with the 1s 3p 5d 7f 9g ... basis set
              ...i.e. with spherical basis functions...

   type   atoms  prim   cont   basis
   ---------------------------------------------------------------------------
    c        7     77     57   def2-QZVP   [7s4p3d2f1g|15s8p3d2f1g]
    o        2     77     57   def2-QZVP   [7s4p3d2f1g|15s8p3d2f1g]
    h       14     33     30   def2-QZVP   [4s3p2d1f|7s3p2d1f]
   ---------------------------------------------------------------------------
   total:   23   1155    933
   ---------------------------------------------------------------------------

   total number of primitive shells          :   71
   total number of contracted shells         :  293
   total number of cartesian basis functions : 1138
   total number of SCF-basis functions       :  933


 integral neglect threshold       :  0.29E-13
 integral storage threshold THIZE :  0.10E-04
 integral storage threshold THIME :         5

 RI-J AUXILIARY BASIS SET information:

              we will work with the 1s 3p 5d 7f 9g ... basis set
              ...i.e. with spherical basis functions...

   type   atoms  prim   cont   basis
   ---------------------------------------------------------------------------
    c        7     70     49   def2-QZVP   [6s4p3d1f1g|12s5p4d2f1g]
    o        2     70     49   def2-QZVP   [6s4p3d1f1g|12s5p4d2f1g]
    h       14     16     11   def2-QZVP   [3s1p1d|5s2p1d]
   ---------------------------------------------------------------------------
   total:   23    854    595
   ---------------------------------------------------------------------------

   total number of primitive shells          :   56
   total number of contracted shells         :  205
   total number of cartesian basis functions :  717
   total number of SCF-basis functions       :  595


 symmetry group of the molecule :   c1 

 the group has the following generators :
   c1(z)

    1 symmetry operations found

 there are 1 real representations :   a   

 maximum number of shells which are related by symmetry :  1


    mo occupation :
   irrep   mo's   occupied
    a      933       36
 
 number of basis functions   :          933
 number of occupied orbitals :           36
 
  
           ------------------
           density functional
           ------------------
 TPSS meta-GGA functional
 exchange:    LDA + TPSS
 correlation: LDA (PW) + TPSS
 iterations will be done with small grid
  
 spherical integration : Lebedev's spherical grid
 spherical gridsize    :           5
    i.e. gridpoints    :         590
 value for diffuse not defined
 radial integration    : Chebyshev 2nd kind (scaling 3)
 radial gridsize       :           8
 integration cells     :          23
 partition function    : becke
 partition sharpness   :           3
  

 biggest AO integral is expected to be     6.990327543
  
           ------------------------
               RI-J - INFORMATION
           ------------------------
 Contributions to RI integral batches: 
  neglected integral batches:       11247
  direct contribution:              19670
  memory contribution:       12154
 Memory core needed for (P|Q) and Cholesky      3 MByte
 Memory core minimum needed except of (P|Q)     2 MByte
 Total minimum memory core needed (sum)         4 MByte
  
 ****************************************
 Memory allocated for RI-J   496 MByte
 ****************************************
                                            

          ------------------------
          nuclear repulsion energy  :   474.902718377    
          ------------------------

 
          -----------------
          -S,T+V- integrals
          -----------------

 1e-integrals will be neglected if expon. factor < 0.293670E-14
 
   Difference densities algorithm switched on.
   The maximal number of linear combinations of
   difference densities is          20 .

 automatic virtual orbital shift switched on 
      shift if e(lumo)-e(homo) < 0.10000000    


 DIIS switched on: error vector is FDS-SDF
 Max. Iterations for DIIS is     :   4
 DIIS matrix (see manual) 
    Scaling factor of diagonals  :  1.200
    threshold for scaling factor :  0.000

 scf convergence criterion : increment of total energy < .1000000D-08
                  and increment of one-electron energy < .1000000D-05

  MOs are in ASCII format !


 reading orbital data $scfmo  from file mos . 

 orbital characterization : scfconv=9
 

 DSCF restart information will be dumped onto file mos


 Starting SCF iterations

          Overall gridpoints after grid construction =        104001

 ITERATION  ENERGY          1e-ENERGY        2e-ENERGY     RMS[dD(SAO)]   TOL
   1  -425.90250571503    -1518.7834084     617.97818434    0.000D+00 0.293D-13
                            Exc = -60.6348842983     Coul =  678.613068635    
                              N = 71.999897859    
                            current damping = 0.700
 
          max. resid. norm for Fia-block=  4.881D-05 for orbital     25a         
          max. resid. fock norm         =  2.894D-03 for orbital    928a         

 ITERATION  ENERGY          1e-ENERGY        2e-ENERGY     RMS[dD(SAO)]   TOL
   2  -425.90250573053    -1518.7834128     617.97818867    0.168D-06 0.186D-13
                            Exc = -60.6348836623     Coul =  678.613072331    
                              N = 71.999897859    
                            current damping = 0.650
 
          Norm of current diis error: 0.30042E-03
          max. resid. norm for Fia-block=  2.080D-05 for orbital     25a         
          max. resid. fock norm         =  1.191D-03 for orbital    928a         

 DENSITY CONVERGED !


 ITERATION  ENERGY          1e-ENERGY        2e-ENERGY     RMS[dD(SAO)]   TOL
   3  -425.90250573323    -1518.7833802     617.97815608    0.760D-07 0.143D-13
                            Exc = -60.6348854097     Coul =  678.613041486    
                              N = 71.999897858    
                            current damping = 0.600
 
          Norm of current diis error: 0.14169E-03
          max. resid. norm for Fia-block=  8.913D-06 for orbital     25a         
          max. resid. fock norm         =  4.693D-04 for orbital    928a         

 DENSITY CONVERGED !


 ITERATION  ENERGY          1e-ENERGY        2e-ENERGY     RMS[dD(SAO)]   TOL
   4  -425.90250573346    -1518.7834535     617.97822940    0.539D-07 0.135D-13
                            Exc = -60.6348823828     Coul =  678.613111781    
                              N = 71.999897858    
                            current damping = 0.650
 
          Norm of current diis error: 0.12340E-03
          max. resid. norm for Fia-block=  3.770D-06 for orbital     36a         
          max. resid. fock norm         =  1.760D-04 for orbital    928a         

 DENSITY CONVERGED !


 ITERATION  ENERGY          1e-ENERGY        2e-ENERGY     RMS[dD(SAO)]   TOL
   5  -425.90250573391    -1518.7834069     617.97818284    0.280D-07 0.131D-13
                            Exc = -60.6348841217     Coul =  678.613066957    
                              N = 71.999897858    
                            current damping = 0.700
 
          Norm of current diis error: 0.21539E-04
          max. resid. norm for Fia-block=  1.296D-06 for orbital     25a         
          max. resid. fock norm         =  6.932D-05 for orbital    928a         
          mo-orthogonalization: Cholesky decomposition

 ENERGY & DENSITY CONVERGED !

          Overall gridpoints after grid construction =        342504

 ITERATION  ENERGY          1e-ENERGY        2e-ENERGY     RMS[dD(SAO)]   TOL
   6  -425.90236685486    -1518.7834061     617.97832090    0.471D-08 0.128D-13
                            Exc = -60.6347450966     Coul =  678.613065999    
                              N = 71.999987272    
                            current damping = 0.750
 
          Norm of current diis error: 0.85183E-05
          max. resid. norm for Fia-block=  5.473D-07 for orbital     25a         
          max. resid. fock norm         =  2.854D-05 for orbital    928a         

 End of SCF iterations

   convergence criteria satisfied after    6 iterations


                  ------------------------------------------ 
                 |  total energy      =   -425.90236685486  |
                  ------------------------------------------ 
                 :  kinetic energy    =    424.21298225160  :
                 :  potential energy  =   -850.11534910647  :
                 :  virial theorem    =      1.99603339935  :
                 :  wavefunction norm =      1.00000000000  :
                  .......................................... 


 orbitals $scfmo  will be written to file mos

    irrep                 32a         33a         34a         35a         36a   
 eigenvalues H         -0.29486    -0.29357    -0.28761    -0.26548    -0.23247
            eV          -8.0236     -7.9886     -7.8262     -7.2241     -6.3260
 occupation              2.0000      2.0000      2.0000      2.0000      2.0000 

    irrep                 37a         38a         39a         40a         41a   
 eigenvalues H         -0.02408     0.00362     0.01816     0.02734     0.03265
            eV          -0.6553      0.0984      0.4941      0.7440      0.8884
 
 
 
 
 ==============================================================================
                           electrostatic moments
 ==============================================================================

 reference point for electrostatic moments:    0.00000   0.00000   0.00000

 
              nuc           elec       ->  total
 ------------------------------------------------------------------------------
                          charge      
 ------------------------------------------------------------------------------
          72.000000     -72.000000       0.000000
 
 ------------------------------------------------------------------------------
                       dipole moment  
 ------------------------------------------------------------------------------
   x     -53.261288      53.522006       0.260717
   y      33.083920     -33.807624      -0.723704
   z      12.705334     -13.011602      -0.306267
 
   | dipole moment | =     0.8280 a.u. =     2.1045 debye 
 
 ------------------------------------------------------------------------------
                     quadrupole moment
 ------------------------------------------------------------------------------
  xx    1111.558775   -1153.399963     -41.841188
  yy     395.255048    -443.103251     -47.848203
  zz     186.440996    -227.405676     -40.964680
  xy    -466.099698     470.166960       4.067263
  xz      26.561243     -23.339195       3.222049
  yz       9.435259     -11.607298      -2.172040
 
     1/3  trace=     -43.551357
     anisotropy=      11.706563
 
 ==============================================================================
 
 


    ------------------------------------------------------------------------
         total  cpu-time :  5 minutes and 54 seconds
         total wall-time :  5 minutes and 53 seconds
    ------------------------------------------------------------------------


   ****  ridft : all done  ****


    2016-02-15 05:31:42.538 

fine, there is no data group "$actual step"
next step = rirpa
 hostname is c-8-35.local

 rirpa (c-8-35.local) : TURBOMOLE rev. 20269 compiled 9 Feb 2016 at 17:19:13
 Copyright (C) 2016 TURBOMOLE GmbH, Karlsruhe


    2016-02-15 05:31:42.577 

 
 
    *************************************************************************
    *************************** PROGRAM RIRPA *******************************
    ******                                                             ******
    ******              H. Eshuis, J. E. Bates and F. Furche           ******
    ******                                                             ******
    ****** Nov 2011                                                    ******
    ****** Copyright TURBOMOLE GmbH                                    ******
    *************************************************************************
    
    
                                References:                                  
    
                   RIRPA:                                                    
                     H. Eshuis, J. Yarkony and F. Furche                     
                     Fast computation of molecular random phase              
                     approximation correlation energies using resolution     
                     of the identity imaginary frequency integration         
                     J. Chem. Phys. 132: 234114 (2010)                       
    
                     H. Eshuis, J. E. Bates and F. Furche                    
                     Electron correlation methods based on                   
                     the random phase approximation                          
                     Theor. Chem. Acc.  131: 1084 (2012)                     
    
                   TWO-COMPONENT RIRPA:                                      
                     M. Kuehn                                                
                     Correlation energies from the                           
                     two-component random-phase approximation                
                     J. Chem. Theory Comput. 10: 623 (2014)                  
    
                   RIRPA GRADIENTS:                                          
                     Asbjoern M. Burow, Jefferson E. Bates, Filipp Furche*,  
                     and Henk Eshuis                                         
                     Analytical First-Order Molecular Properties and Forces  
                     within the Adiabatic Connection Random Phase            
                     Approximation                                           
                     J. Chem. Theory Comput. 10: 180 (2014)                  
    
    
    
 
                FOUND RI-J FLAG
 
  HF exact exchange energy will be computed using RI-J.


              +--------------------------------------------------+
              | Atomic coordinate, charge and isotop information |
              +--------------------------------------------------+

                    atomic coordinates            atom    charge  isotop
         -6.36673285    1.54784286   -2.05583573    c      6.000     0
         -4.53241004    2.30958984   -0.03255768    c      6.000     0
         -4.62916897    4.23164024    1.19596847    o      8.000     0
         -2.72135777    0.54099259    0.25642257    o      8.000     0
         -0.86980457    1.10572876    2.17564074    c      6.000     0
          1.04555504   -1.00794016    2.16233739    c      6.000     0
          2.38526689   -1.41310057   -0.35867289    c      6.000     0
          3.71376301    0.97058080   -1.26787819    c      6.000     0
          4.26284225   -3.57760347   -0.11531419    c      6.000     0
         -7.76336684    3.02656883   -2.30375211    h      1.000     0
         -7.29444731   -0.20839268   -1.52361000    h      1.000     0
         -5.36546884    1.21928725   -3.82098021    h      1.000     0
         -0.02803688    2.93506219    1.76441396    h      1.000     0
         -1.82479089    1.24994912    3.99212888    h      1.000     0
          0.11034327   -2.75841866    2.72501030    h      1.000     0
          2.45271300   -0.58263051    3.61569539    h      1.000     0
          0.96173361   -1.93817536   -1.75637014    h      1.000     0
          5.04928460    1.64457662    0.15405341    h      1.000     0
          4.77282566    0.59576519   -2.99420596    h      1.000     0
          2.38865548    2.49276120   -1.67098339    h      1.000     0
          5.73552839   -3.10539543    1.25041032    h      1.000     0
          3.33820310   -5.30383347    0.52462874    h      1.000     0
          5.17887064   -3.97485516   -1.91654967    h      1.000     0
 
       center of nuclear mass  :   -0.87698100    0.54409185    0.21015652
       center of nuclear charge:   -0.73974012    0.45949889    0.17646298
              +-------------------------------------------------+
              |        Rotational Constants Section             |
              +-------------------------------------------------+
                                   Center of Mass [a.u]:
              -0.87698100065971         0.54409184561436         0.21015651707533
                     Principal Moments of Inertia [a.u.]
             542.98240184808310      2483.20850560436156      2558.41270628455413
                       Rotational constants A,B,C [a.u.]
               0.00092084015669         0.00020135240310         0.00019543367603
                     Rotational constants A,B,C [cm**-1]
               0.11086857749267         0.02424270308377         0.02353009205613
                        Rotational constants A,B,C [MHz]
            3323.75633614916796       726.77795460467109       705.41441344738655

   * BASIS SET information:

              +--------------------------------------------------+
              |               basis set information              |
              +--------------------------------------------------+

              we will work with the 1s 3p 5d 7f 9g ... basis set
              ...i.e. with spherical basis functions...

   type   atoms  prim   cont   basis
   ---------------------------------------------------------------------------
    c        7     77     57   def2-QZVP   [7s4p3d2f1g|15s8p3d2f1g]
    o        2     77     57   def2-QZVP   [7s4p3d2f1g|15s8p3d2f1g]
    h       14     33     30   def2-QZVP   [4s3p2d1f|7s3p2d1f]
   ---------------------------------------------------------------------------
   total:   23   1155    933
   ---------------------------------------------------------------------------

   total number of primitive shells          :   71
   total number of contracted shells         :  293
   total number of cartesian basis functions : 1138
   total number of SCF-basis functions       :  933


   * AUXILIARY BASIS SET information:

              +--------------------------------------------------+
              |               basis set information              |
              +--------------------------------------------------+

              we will work with the 1s 3p 5d 7f 9g ... basis set
              ...i.e. with spherical basis functions...

   type   atoms  prim   cont   basis
   ---------------------------------------------------------------------------
    c        7    141    141   def2-QZVP   [9s8p7d5f3g1h|9s8p7d5f3g1h]
    o        2    141    141   def2-QZVP   [9s8p7d5f3g1h|9s8p7d5f3g1h]
    h       14     56     56   def2-QZVP   [6s4p3d2f1g|6s4p3d2f1g]
   ---------------------------------------------------------------------------
   total:   23   2053   2053
   ---------------------------------------------------------------------------

   total number of primitive shells          :   82
   total number of contracted shells         :  521
   total number of cartesian basis functions : 2713
   total number of SCF-basis functions       : 2053


   * RIJ AUXILIARY BASIS SET information:

              +--------------------------------------------------+
              |               basis set information              |
              +--------------------------------------------------+

              we will work with the 1s 3p 5d 7f 9g ... basis set
              ...i.e. with spherical basis functions...

   type   atoms  prim   cont   basis
   ---------------------------------------------------------------------------
    c        7     70     49   def2-QZVP   [6s4p3d1f1g|12s5p4d2f1g]
    o        2     70     49   def2-QZVP   [6s4p3d1f1g|12s5p4d2f1g]
    h       14     16     11   def2-QZVP   [3s1p1d|5s2p1d]
   ---------------------------------------------------------------------------
   total:   23    854    595
   ---------------------------------------------------------------------------

   total number of primitive shells          :   56
   total number of contracted shells         :  205
   total number of cartesian basis functions :  717
   total number of SCF-basis functions       :  595


 reading orbital data $scfmo  from file mos
 orbital characterization : scfconv=9

 integral neglect threshold       :  0.32E+02

 scfconv           9

 MAXIMUM CORE MEMORY WHICH CAN BE ALLOCATED DYNAMICALLY = 8000 MiB
              ( or 1048576000 double words )


 there are 1 real representations :   a   

 maximum number of shells which are related by symmetry :  1

 time elapsed for calculating density matrices :   0.058 sec
 all orbitals will be active in the correlation treatment

     total memory allocated for calculation of (Q|P)**(-1/2) : 49 MiB


     calculation of (P|Q) ...
     time in lp2sym        cpu:  0.14 sec    wall:  0.14 sec    ratio:  1.0


     calculation of the Cholesky decomposition of (P|Q)**(-1) ...
     time in invmetri      cpu:  0.95 sec    wall:  0.95 sec    ratio:  1.0

   threshold for RMS(d[D]) in SCF was     :  0.10E-06
   integral neglect threshold             :  0.12E-13
   derivative integral neglect threshold  :  0.10E-06


 setting up bound for integral derivative estimation

 increment for numerical differentiation : 0.00050000
 total memory allocated for calculation of (Q|P)**(-1/2) : 49 MiB
 Allocatable memory for RI due to $ricore (MB):         500

 there are 1 real representations :   a   

 maximum number of shells which are related by symmetry :  1

  
           ------------------------
               RI-J - INFORMATION
           ------------------------
 Contributions to RI integral batches: 
  neglected integral batches:        7676
  direct contribution:              25754
  memory contribution:        9641
 
          -----------------
          -S,T+V- integrals
          -----------------

 1e-integrals will be neglected if expon. factor < 0.122865E-13

          ------------------------
          nuclear repulsion energy  :   474.902718377    
          ------------------------


 residuum convergence criterium   :  0.10E-04


 integral neglect threshold       :  0.29E-11
 integral storage threshold THIZE :  0.10E-04
 integral storage threshold THIME :         5


 WARNING : cannot change filename for statistics 
  
           ------------------
           density functional
           ------------------
 TPSS meta-GGA functional
 exchange:    LDA + TPSS
 correlation: LDA (PW) + TPSS
 iterations will be done with small grid
  
 spherical integration : Lebedev's spherical grid
 spherical gridsize    :           5
    i.e. gridpoints    :         590
 value for diffuse not defined
 radial integration    : Chebyshev 2nd kind (scaling 3)
 radial gridsize       :           8
 integration cells     :          23
 partition function    : becke
 partition sharpness   :           3
  
 preparing numerical integration ....
          Overall gridpoints after grid construction =        104001

          IRREP   tensor space dimension   number of roots

           a             32292                   1

 Calculating ground state density on molecular grid

 Integral of ground state density: N =   71.99989785830950    


 number of passes for ispin    1
 =    1
 
 Number of eigenvalues < 6e-3:            0
 
 
            -----------------------------
            Complex frequency integration
            -----------------------------
 
 Number of Clenshaw-Curtis nodes:          200
 Optimized scaling parameter    :    7.89597721027012     
 Sensitivity measure            :  -6.557812279317510E-011
 
 nrbfx        2053        2053
 Contributions to RI integral batches: 
  neglected integral batches:        8249
  direct contribution:              34822
  memory contribution:           0

                  -------------------------------------------- 
                 |  HXX+RIRPA total energy     =   -426.34239383877  |
                  --------------------------------------------- 
                 :  RIRPA correlation energy   =     -3.25145604824  :
                 :  HXX total energy           =   -423.09093779053  :
                 :  Hartree energy             =    678.61306599948  :
                 :  Exact Exchange energy      =    -57.82331603237  :
                  ............................................. 


 maximum number of Davidson iterations set to   25


 logfile dipl_a    exists already

 found      1 converged vectors on dipl_a   
 read       1 vectors from logfile dipl_a   


                    ------------------

                     CPKS equations   

                    ------------------


                       Block Davidson iteration


 total number of roots to be determined:   1


 maximum core memory set to  8000 MB,
 corresponding to      804 vectors in CAO basis


 maximum number of simultaneously treated vectors (including degeneracy):        1


 Iteration IRREP Converged      Max. Euclidean
                 roots          residual norm

    1       a        0        5.050298428848942D-04
 
    2       a        0        2.865451732599284D-05
 
    3       a        1        9.435586285712182D-06
 

 converged!


 Switching to fine grid

 preparing numerical integration ....
          Overall gridpoints after grid construction =        342504

 Calculating ground state density on molecular grid

 Integral of ground state density: N =   71.99998727194904    



 Iteration IRREP Converged      Max. Euclidean
                 roots          residual norm

    4       a        0        3.935492092069976D-04
 

 NOTE: Residual norms are larger than 1.00D-05 due to mgrid option!

 Eigenpairs written on logfile dipl_a   



 IRREP   Vector     Frequency            Euclidean residual norm

  a         1    0.000000000000000D+00    3.935492092069976D-04
 

                    -------------------

                     relaxed densities 

                    -------------------

    ----------------------------------------
     S+T+V CONTRIBUTIONS TO ENERGY GRADIENT 
    ----------------------------------------

 1e-integral 1st. derivatives will be neglected if expon. factor < 0.100000E-10


    -----------------------------------------------
     TWO ELECTRON CONTRIBUTIONS TO ENERGY GRADIENT 
    -----------------------------------------------

 setting up bound for integral derivative estimation

 increment for numerical differentiation : 0.00050000

 biggest AO integral is expected to be     6.990327543
 biggest cartesian 1st derivative AO integral is expected to be    14.574739305

 biggest 1-particle AO density matrix element is expected to be    0.6630687302

 core memory to be involved in 2e-gradient :
   symmetry shell pair data              :         0
   two particle density+dens. estimates  :    237552
   derivative integrals                  :   1194671
   ij-primitive data                     :       576
   derivative integral bound             :    129213
   totally                               :   1324458


 setting up bound for integral derivative estimation

 increment for numerical differentiation : 0.00050000

 biggest AO integral is expected to be     6.990327543
 biggest cartesian 1st derivative AO integral is expected to be    14.574739305

 2e-integral 1st. derivatives will be neglected if expon. factor < 0.935762E-20
 outer boundary for 2e-integral derivative neglection is 0.354729E-20

 Integrated ground state density     :   143.9999745438840    


          ------------------------------------------------
           cartesian gradient of the energy (hartree/bohr)
          ------------------------------------------------

  ATOM      1 c           2 c           3 o           4 o           5 c 
dE/dx -0.4917887D-06 -0.1924904D-05  0.8956550D-06 -0.2864744D-05  0.3069285D-05
dE/dy -0.7627739D-07 -0.3172607D-05  0.1042706D-05  0.3717164D-05  0.7025458D-07
dE/dz -0.9509655D-06 -0.3601575D-05  0.2462520D-05  0.8891372D-06  0.2237259D-05

  ATOM      6 c           7 c           8 c           9 c          10 h 
dE/dx  0.2113737D-06  0.1030160D-08  0.4416685D-07  0.3648007D-06 -0.4355066D-07
dE/dy -0.7915165D-06  0.7347559D-06 -0.8826246D-07 -0.9784442D-07  0.5265099D-06
dE/dz -0.2900884D-06  0.4880662D-07  0.1194454D-05  0.1344501D-05 -0.5444169D-08

  ATOM     11 h          12 h          13 h          14 h          15 h 
dE/dx  0.3374957D-06  0.6089429D-06 -0.2247802D-05 -0.1967765D-05 -0.2129443D-05
dE/dy -0.1475107D-06 -0.3942044D-08 -0.5606590D-07 -0.1669070D-05  0.6117752D-06
dE/dz -0.2955392D-06  0.3597413D-07 -0.9848510D-06  0.9504894D-07  0.6048423D-06

  ATOM     16 h          17 h          18 h          19 h          20 h 
dE/dx -0.3413887D-06  0.1003484D-06 -0.7655567D-06 -0.1642906D-06 -0.6050717D-07
dE/dy -0.5036116D-06 -0.4137661D-06  0.6035810D-07  0.8421238D-06  0.5414843D-06
dE/dz  0.5130267D-06  0.8339588D-06  0.1378045D-05  0.7715009D-06  0.8277924D-06

  ATOM     21 h          22 h          23 h 
dE/dx -0.4347371D-06 -0.7454061D-06 -0.1924192D-06
dE/dy -0.6337720D-08  0.2396038D-06  0.6846101D-06
dE/dz  0.5852129D-06  0.1188329D-07  0.2192652D-06
 
 resulting FORCE  (fx,fy,fz) = (-.874D-05,0.204D-05,0.792D-05)
 resulting MOMENT (mx,my,mz) = (0.694D-05,-.511D-04,0.759D-05)


 **********************************************************************
  |maximum component of gradient| : 0.37171642E-05  (atom  4 o )       
   gradient norm                  : 0.10228862E-04
 **********************************************************************

 exx =       0.000001 eyy =      -0.000004 ezz =       0.000006
 eyz =      -0.000008 exz =       0.000012 exy =       0.000005

   ***  cartesian gradients written onto <gradient>  ***
 
 
 
 ==============================================================================
                           electrostatic moments
 ==============================================================================

 reference point for electrostatic moments:    0.00000   0.00000   0.00000

 
              nuc           gs,e       ->  gs,tot          rpa       ->  total
 ------------------------------------------------------------------------------
                          charge      
 ------------------------------------------------------------------------------
          72.000000     -72.000000       0.000000      -0.000000       0.000000
 
 ------------------------------------------------------------------------------
                       dipole moment  
 ------------------------------------------------------------------------------
   x     -53.261288      53.522006       0.260717      -0.006285       0.254433
   y      33.083920     -33.807624      -0.723704       0.031600      -0.692104
   z      12.705334     -13.011602      -0.306267       0.014728      -0.291539
 
   | dipole moment | =     0.7929 a.u. =     2.0154 debye 
 
 ------------------------------------------------------------------------------
                     quadrupole moment
 ------------------------------------------------------------------------------
  xx    1111.558775   -1153.399963     -41.841188       0.066184     -41.775004
  yy     395.255048    -443.103251     -47.848203       0.117030     -47.731172
  zz     186.440996    -227.405676     -40.964680      -0.049005     -41.013685
  xy    -466.099698     470.166960       4.067263      -0.159085       3.908178
  xz      26.561243     -23.339195       3.222049      -0.045559       3.176490
  yz       9.435259     -11.607298      -2.172040       0.049010      -2.123029
 
     1/3  trace=     -43.506620
     anisotropy=      11.410683
 
 ==============================================================================
 

    ------------------------------------------------------------------------
    Rirpa profiling                cpu                    wall         ratio
    ------------------------------------------------------------------------
    module                         sec     %               sec     %
    ------------------------------------------------------------------------
    RIRPA                     24057.1  100.00        24038.2  100.00   1.0
    ccmkbaoi                     68.3    0.28           68.2    0.28   1.0
    ehxx                       1274.6    5.30         1273.6    5.30   1.0
    RIRPA_grad                22703.3   94.37        22685.4   94.37   1.0
    rirhs                     11607.6   48.25        11598.4   48.25   1.0
    tqbuild                    2524.0   10.49         2522.0   10.49   1.0
    trpaln                       68.4    0.28           68.4    0.28   1.0
    respon                      367.3    1.53          367.0    1.53   1.0
    rparelax                    209.4    0.87          209.2    0.87   1.0
    egdfin                    10358.4   43.06        10350.3   43.06   1.0
    ------------------------------------------------------------------------
    sum                       73249.8  304.48        73192.0  304.48   1.0
    ------------------------------------------------------------------------


    ------------------------------------------------------------------------
         total  cpu-time :  6 hours 40 minutes and 57 seconds
         total wall-time :  6 hours 40 minutes and 38 seconds
    ------------------------------------------------------------------------

   ****  rirpa : all done  ****


    2016-02-15 12:12:20.855 

fine, there is no data group "$actual step"
script actual: unknown actual step rirpa
next step = unknown
 energy change  : actual value =  -0.1290E-07 threshold =   0.1000E-06
 geom. gradient : actual value =   0.8024E-05 threshold =   0.1000E-03

CONVERGENCY CRITERIA FULFILLED IN CYCLE 13

