STARTING ridft ON 32 PROCESSORS!
RUNNING PROGRAM /sopt/TURBOMOLE/7.3-official/bin/em64t-unknown-linux-gnu_smp/ridft_mpi.
           SMPCPUS    set: Shared-memory Parallelization with  32 CPUs.

           SMP Parallelization Reference:
           C. van Wullen, J. Comput. Chem. 32 (2011) 1195--1201
 operating system is UNIX !

 ridft (c-13-38) : TURBOMOLE V7.3 ( 22118 ) 1 Jul 2018 at 20:38:15
 Copyright (C) 2018 TURBOMOLE GmbH, Karlsruhe


    2019-03-12 22:20:25.554 



                                  r i d f t

                        DFT program with RI approximation 
                                for coulomb part 




                                                 
                                 References:     
                                                 
          TURBOMOLE:                             
              R. Ahlrichs, M. Baer, M. Haeser, H. Horn, and
              C. Koelmel
              Electronic structure calculations on workstation
              computers: the program system TURBOMOLE
              Chem. Phys. Lett. 162: 165 (1989)
          Density Functional:                              
              O. Treutler and R. Ahlrichs                      
              Efficient Molecular Numerical Integration Schemes
              J. Chem. Phys. 102: 346 (1995)                   
          Parallel Version:                                
              Performance of parallel TURBOMOLE for Density    
              Functional Calculations                          
              M. v. Arnim and R. Ahlrichs                      
              J. Comp. Chem. 19: 1746 (1998)                   
          RI-J Method:                                     
              Auxiliary Basis Sets to approximate Coulomb      
              Potentials                                       
              Chem. Phys. Lett. 240: 283 (1995)                
              K. Eichkorn, O. Treutler, H. Oehm, M. Haeser     
              and R. Ahlrichs                                  
              Chem. Phys. Lett. 242: 652 (1995)                
                                                           
              Auxiliary Basis Sets for Main Row Atoms and their
              Use to approximate Coulomb Potentials            
              K. Eichkorn, F. Weigend, O. Treutler and         
              R. Ahlrichs                                      
              Theo. Chem. Acc. 97: 119 (1997)                   
                                                           
              Accurate Coulomb-fitting basis sets for H to Rn 
              F. Weigend                                        
              Phys. Chem. Chem. Phys. 8: 1057 (2006)            
                                                           
          Multipole accelerated RI-J (MARI-J):             
              Fast evaluation of the Coulomb potential for     
              electron densities using multipole accelerated   
              resolution of identity approximation             
              M. Sierka, A. Hogekamp and R. Ahlrichs           
              J. Chem. Phys. 118: 9136 (2003)                  
          RI-JK Method:                                     
              A fully direct RI-HF algorithm: Implementation,
              optimised auxiliary basis sets, demonstration of
              accuracy and efficiency                         
              F. Weigend                                      
              Phys. Chem. Chem. Phys. 4: 4285 (2002)           
          Two-component HF and DFT with spin-orbit coupling:  
              Self-consistent treatment of spin-orbit         
              interactions with efficient Hartree-Fock and    
              density functional methods                      
              M. K. Armbruster, F. Weigend, C. van Wüllen and 
              W. Klopper                                      
              Phys. Chem. Chem. Phys. 10: 1748 (2008)         
          Two-component difference density and DIIS algorithm 
              Efficient two-component self-consistent field   
              procedures and gradients: implementation in     
              TURBOMOLE and application to Au20-              
              A. Baldes, F. Weigend                           
              Mol. Phys. 111: 2617 (2013)                     
          Relativistic all-electron 2c calculations           
              An efficient implementation of two-component    
              relativistic exact-decoupling methods for large 
              molecules                                       
              D. Peng, N. Middendorf, F. Weigend, M. Reiher   
              J. Chem. Phys. 138: 184105 (2013)               
          Finite nucleus model and SNSO approximation         
              Efficient implementation of one- and two-       
              component analytical energy gradients in exact  
              two-component theory                            
              Y. J. Franzke, N. Middendorf, F. Weigend        
              J. Chem. Phys. 148: 104110 (2018)               
                                         




              +--------------------------------------------------+
              |      general information about current run       |
              +--------------------------------------------------+

 
 PBE functional
 exchange:    LDA + PBE
 correlation: LDA (PW) + PBE
 A DFT calculation using the RI-J approximation will be carried out.
 Allocatable memory for RI due to $ricore (MB):                  8000


              +--------------------------------------------------+
              | Atomic coordinate, charge and isotop information |
              +--------------------------------------------------+

                    atomic coordinates            atom    charge  isotop
          2.97155929    0.48102820   -0.48467944    n      7.000     0
          1.83182474   -1.70672566    0.08414220    c      6.000     0
          3.04933562   -3.34893714    0.19340440    h      1.000     0
         -0.75240979   -1.94418636    0.53093827    c      6.000     0
         -1.54659868   -3.76383766    1.00828915    h      1.000     0
         -2.25974443    0.20136504    0.36924743    c      6.000     0
         -4.27208430    0.09361448    0.70570461    h      1.000     0
         -1.10951167    2.48954862   -0.22696639    c      6.000     0
         -2.19550694    4.21314446   -0.37881936    h      1.000     0
          1.49013850    2.53167682   -0.62784361    c      6.000     0
          2.43478365    4.28739999   -1.09325739    h      1.000     0
 
       center of nuclear mass  :    0.37250694    0.34270147   -0.06060898
       center of nuclear charge:    0.32077687    0.33996791   -0.05191255

              +--------------------------------------------------+
              |               basis set information              |
              +--------------------------------------------------+

              we will work with the 1s 3p 5d 7f 9g ... basis set
              ...i.e. with spherical basis functions...

   type   atoms  prim   cont   basis
   ---------------------------------------------------------------------------
    n        1     68     48   def2-QZVP   [7s4p3d2f|15s8p3d2f]
    c        5     68     48   def2-QZVP   [7s4p3d2f|15s8p3d2f]
    h        5     26     23   def2-QZVP   [4s3p2d|7s3p2d]
   ---------------------------------------------------------------------------
   total:   11    538    403
   ---------------------------------------------------------------------------

   total number of primitive shells          :   68
   total number of contracted shells         :  141
   total number of cartesian basis functions :  467
   total number of SCF-basis functions       :  403


 integral neglect threshold       :  0.71E-11
 integral storage threshold THIZE :  0.10E-04
 integral storage threshold THIME :         5

 RI-J AUXILIARY BASIS SET information:

              we will work with the 1s 3p 5d 7f 9g ... basis set
              ...i.e. with spherical basis functions...

   type   atoms  prim   cont   basis
   ---------------------------------------------------------------------------
    n        1     70     49   def2-QZVP   [6s4p3d1f1g|12s5p4d2f1g]
    c        5     70     49   def2-QZVP   [6s4p3d1f1g|12s5p4d2f1g]
    h        5     16     11   def2-QZVP   [3s1p1d|5s2p1d]
   ---------------------------------------------------------------------------
   total:   11    500    349
   ---------------------------------------------------------------------------

   total number of primitive shells          :   56
   total number of contracted shells         :  115
   total number of cartesian basis functions :  426
   total number of SCF-basis functions       :  349


 symmetry group of the molecule :   c1 

 the group has the following generators :
   c1(z)

    1 symmetry operations found

 there are 1 real representations :   a   

 maximum number of shells which are related by symmetry :  1


    mo occupation :
   irrep   mo's   occupied
    a      403       21
 
 number of basis functions   :                    403
 number of occupied orbitals :                     21
 
  
           ------------------
           density functional
           ------------------
 PBE functional
 exchange:    LDA + PBE
 correlation: LDA (PW) + PBE

 iterations will be done with small grid
  
 spherical integration : Lebedev's spherical grid
 spherical gridsize    :                     4
    i.e. gridpoints    :                   434
 value for diffuse not defined
 radial integration    : Chebyshev 2nd kind (scaling 3)
 radial gridsize       :                     6
 integration cells     :                    11
 partition function    : becke
 partition sharpness   :                     3
  

 biggest AO integral is expected to be     6.129561670
  
           ------------------------
               RI-J - INFORMATION
           ------------------------
 Contributions to RI integral batches: 
  neglected integral batches:                  1016
  direct contribution:                            0
  memory contribution:                  8995
 Memory core needed for (P|Q) and Cholesky      1 MByte
 Memory core minimum needed except of (P|Q)     1 MByte
 Total minimum memory core needed (sum)         2 MByte
  
 ****************************************
 Memory allocated for RI-J   334 MByte
 ****************************************
                                            

          ------------------------
          nuclear repulsion energy  :   206.225641840    
          ------------------------

  _________________________________
 |                                 |
 |         DFTD3 V3.1 Rev 0        |
 | S.Grimme, University Bonn       |
 |            June  2014           |
 |   see standalone version        |
 |       dftd3 -h for options      |
 |_________________________________|
 
 Please cite DFT-D3 work done with this code as:
 S. Grimme, J. Antony, S. Ehrlich and H. Krieg,
 J. Chem. Phys, 132 (2010), 154104.
 If used with BJ-damping cite also
 S. Grimme, S. Ehrlich and L. Goerigk,
 J. Comput. Chem. 32 (2011), 1456-1465
 For DFT-D2 the reference is
 S. Grimme, J. Comput. Chem., 27 (2006), 1787-1799
 
C6 coefficients used:
                     2  C6 for element                      1
Z=  1 CN= 0.912     C6(AA)=    3.03
Z=  1 CN= 0.000     C6(AA)=    7.59
                     5  C6 for element                      6
Z=  6 CN= 0.000     C6(AA)=   49.11
Z=  6 CN= 0.987     C6(AA)=   43.25
Z=  6 CN= 1.998     C6(AA)=   29.36
Z=  6 CN= 2.999     C6(AA)=   25.78
Z=  6 CN= 3.984     C6(AA)=   18.21
                     4  C6 for element                      7
Z=  7 CN= 0.000     C6(AA)=   25.27
Z=  7 CN= 0.994     C6(AA)=   22.12
Z=  7 CN= 2.014     C6(AA)=   19.68
Z=  7 CN= 2.990     C6(AA)=   15.58

#           XYZ [au]              R0(AA) [Ang.]  CN          C6(AA)     C8(AA)   C10(AA) [au]
  1   2.97156   0.48103  -0.48468   n   0.533  2.103        19.5       430.4     11631.5
  2   1.83182  -1.70673   0.08414   c   0.610  3.200        25.0       723.8     25642.9
  3   3.04934  -3.34894   0.19340   h   0.395  1.003         3.1        37.3       553.0
  4  -0.75241  -1.94419   0.53094   c   0.610  3.129        25.3       733.1     25973.9
  5  -1.54660  -3.76384   1.00829   h   0.395  1.003         3.1        37.3       553.0
  6  -2.25974   0.20137   0.36925   c   0.610  3.142        25.3       731.7     25922.0
  7  -4.27208   0.09361   0.70570   h   0.395  1.003         3.1        37.3       553.0
  8  -1.10951   2.48955  -0.22697   c   0.610  3.129        25.3       733.1     25972.6
  9  -2.19551   4.21314  -0.37882   h   0.395  1.003         3.1        37.3       553.0
 10   1.49014   2.53168  -0.62784   c   0.610  3.200        25.0       723.9     25646.3
 11   2.43478   4.28740  -1.09326   h   0.395  1.003         3.1        37.3       553.0

molecular C6(AA) [au] =      1465.48

           DFT-D V3(BJ)
 DF pbe                                               
 parameters
 s6       :    1.0000
 s8       :    0.7875
 a1       :    0.4289
 a2       :    4.4407
 k1-k3    :   16.0000    1.3333   -4.0000
 
 Edisp /kcal,au:    -6.2395 -0.00994329

 E6    /kcal :    -4.3445
 E8    /kcal :    -1.8950
 % E8        : 30.37
 nuclear repulsion energy                  =     206.225641840
 empirical dispersive energy correction    =      -0.009943286
 nuclear repulsion + dispersion correction =     206.215698554


         -----------------
         -S,T+V- integrals
         -----------------

 1e-integrals will be neglected if expon. factor < 0.715623E-12
 Difference densities >>NOT<< switched on in parallel ridft!

 DIIS switched on: error vector is FDS-SDF
 Max. Iterations for DIIS is     :   4
 DIIS matrix (see manual) 
    Scaling factor of diagonals  :  1.200
    threshold for scaling factor :  0.000

 scf convergence criterion : increment of total energy < .1000000D-06
                  and increment of one-electron energy < .1000000D-03

  MOs are in ASCII format !


 automatic virtual orbital shift switched on 
      shift if e(lumo)-e(homo) < 0.10000000    


 reading orbital data $scfmo  from file mos
 orbital characterization : expanded
 mo provided and orthogonalized by Cholesky decomposition

 DSCF restart information will be dumped onto file mos


 Starting SCF iterations

          Overall gridpoints after grid construction =         30429

 ITERATION  ENERGY          1e-ENERGY        2e-ENERGY     NORM[dD(SAO)]  TOL
   1  -247.09515635832    -732.91264969     279.60179478    0.000D+00 0.714D-11
                            Exc = -34.7660818843     Coul =  314.367876663    
                              N = 42.000167279    
                            current damping = 0.700
 
          max. resid. norm for Fia-block=  5.839D-01 for orbital      7a         
          max. resid. fock norm         =  5.291D+01 for orbital    354a         

 ITERATION  ENERGY          1e-ENERGY        2e-ENERGY     NORM[dD(SAO)]  TOL
   2  -247.89933804205    -739.32630000     285.21126341    0.000D+00 0.714D-11
                            Exc = -35.2708926252     Coul =  320.482156032    
                              N = 42.000139452    
                            current damping = 0.650
 
          Norm of current diis error:  2.8396    
          max. resid. norm for Fia-block=  1.367D-01 for orbital      1a         
          max. resid. fock norm         =  2.385D-01 for orbital    377a         

 ITERATION  ENERGY          1e-ENERGY        2e-ENERGY     NORM[dD(SAO)]  TOL
   3  -248.03147936973    -740.87921671     286.63203879    0.000D+00 0.714D-11
                            Exc = -35.4568533842     Coul =  322.088892173    
                              N = 42.000117366    
                            current damping = 0.550
 
          Norm of current diis error:  1.3998    
          max. resid. norm for Fia-block=  5.633D-02 for orbital     21a         
          max. resid. fock norm         =  6.068D-02 for orbital      7a         

 ITERATION  ENERGY          1e-ENERGY        2e-ENERGY     NORM[dD(SAO)]  TOL
   4  -248.07550008291    -741.52453453     287.23333590    0.000D+00 0.714D-11
                            Exc = -35.5116067406     Coul =  322.744942636    
                              N = 42.000116926    
                            current damping = 0.450
 
          Norm of current diis error: 0.55965    
          max. resid. norm for Fia-block=  2.832D-02 for orbital      7a         
          max. resid. fock norm         =  5.120D-02 for orbital    388a         

 ITERATION  ENERGY          1e-ENERGY        2e-ENERGY     NORM[dD(SAO)]  TOL
   5  -248.08082628599    -742.22773829     287.93121345    0.000D+00 0.714D-11
                            Exc = -35.5868611514     Coul =  323.518074599    
                              N = 42.000111618    
                            current damping = 0.350
 
          Norm of current diis error: 0.34559    
          max. resid. norm for Fia-block=  1.425D-02 for orbital     21a         
          max. resid. fock norm         =  1.530D-02 for orbital     21a         
          mo-orthogonalization: Cholesky decomposition

 ITERATION  ENERGY          1e-ENERGY        2e-ENERGY     NORM[dD(SAO)]  TOL
   6  -248.08386726568    -742.04182130     287.74225548    0.000D+00 0.714D-11
                            Exc = -35.5716561929     Coul =  323.313911672    
                              N = 42.000114100    
                            current damping = 0.400
 
          Norm of current diis error: 0.13566    
          max. resid. norm for Fia-block=  3.484D-03 for orbital     20a         
          max. resid. fock norm         =  8.883D-03 for orbital    400a         

 ITERATION  ENERGY          1e-ENERGY        2e-ENERGY     NORM[dD(SAO)]  TOL
   7  -248.08425302223    -742.10806176     287.80811018    0.000D+00 0.714D-11
                            Exc = -35.5775436325     Coul =  323.385653814    
                              N = 42.000112873    
                            current damping = 0.450
 
          Norm of current diis error: 0.56434E-01
          max. resid. norm for Fia-block=  1.606D-03 for orbital     13a         
          max. resid. fock norm         =  4.522D-03 for orbital    400a         

 ITERATION  ENERGY          1e-ENERGY        2e-ENERGY     NORM[dD(SAO)]  TOL
   8  -248.08432197774    -742.14501768     287.84499714    0.000D+00 0.714D-11
                            Exc = -35.5813294473     Coul =  323.426326591    
                              N = 42.000113117    
                            current damping = 0.300
 
          Norm of current diis error: 0.11923E-01
          max. resid. norm for Fia-block=  3.264D-04 for orbital     21a         
          max. resid. fock norm         =  6.339D-04 for orbital    400a         

 ITERATION  ENERGY          1e-ENERGY        2e-ENERGY     NORM[dD(SAO)]  TOL
   9  -248.08432559004    -742.13933474     287.83931060    0.000D+00 0.714D-11
                            Exc = -35.5809543515     Coul =  323.420264952    
                              N = 42.000113037    
                            current damping = 0.350
 
          Norm of current diis error: 0.16997E-02
          max. resid. norm for Fia-block=  7.347D-05 for orbital     13a         
          max. resid. fock norm         =  1.923D-04 for orbital    402a         

 ITERATION  ENERGY          1e-ENERGY        2e-ENERGY     NORM[dD(SAO)]  TOL
  10  -248.08432560022    -742.14002338     287.83999922    0.000D+00 0.714D-11
                            Exc = -35.5809901046     Coul =  323.420989326    
                              N = 42.000113043    
                            current damping = 0.400
 
          Norm of current diis error: 0.15882E-02
          max. resid. norm for Fia-block=  4.969D-05 for orbital     20a         
          max. resid. fock norm         =  9.972D-05 for orbital    399a         
          mo-orthogonalization: Cholesky decomposition

 ENERGY CONVERGED !

          Overall gridpoints after grid construction =        109461

 ITERATION  ENERGY          1e-ENERGY        2e-ENERGY     NORM[dD(SAO)]  TOL
  11  -248.08424605639    -742.14028915     287.84034454    0.000D+00 0.714D-11
                            Exc = -35.5809404451     Coul =  323.421284986    
                              N = 41.999996694    
                            current damping = 0.250
 
          Norm of current diis error: 0.75277E-03
          max. resid. norm for Fia-block=  2.582D-05 for orbital     19a         
          max. resid. fock norm         =  4.473D-05 for orbital    400a         

 End of SCF iterations

   convergence criteria satisfied after    11 iterations


                  ------------------------------------------ 
                 |  total energy      =   -248.08424605639  |
                  ------------------------------------------ 
                 :  kinetic energy    =    247.03659408172  :
                 :  potential energy  =   -495.12084013811  :
                 :  virial theorem    =      1.99577703143  :
                 :  wavefunction norm =      1.00000000000  :
                  .......................................... 


 orbitals $scfmo  will be written to file mos

    irrep                 17a         18a         19a         20a         21a   
 eigenvalues H         -0.36178    -0.32369    -0.26874    -0.24634    -0.21818
            eV          -9.8445     -8.8081     -7.3130     -6.7032     -5.9371
 occupation              2.0000      2.0000      2.0000      2.0000      2.0000 

    irrep                 22a         23a         24a         25a         26a   
 eigenvalues H         -0.06885    -0.05531     0.00516     0.02967     0.03993
            eV          -1.8735     -1.5051      0.1404      0.8073      1.0866
 
 
 
 
 ==============================================================================
                           electrostatic moments
 ==============================================================================

 reference point for electrostatic moments:    0.00000   0.00000   0.00000

 
              nuc           elec       ->  total
 ------------------------------------------------------------------------------
                          charge      
 ------------------------------------------------------------------------------
          42.000000     -42.000000       0.000000
 
 ------------------------------------------------------------------------------
                       dipole moment  
 ------------------------------------------------------------------------------
   x      13.472628     -14.335973      -0.863344
   y      14.278652     -14.324465      -0.045812
   z      -2.180327       2.324096       0.143769
 
   | dipole moment | =     0.8764 a.u. =     2.2277 debye 
 
 ------------------------------------------------------------------------------
                     quadrupole moment
 ------------------------------------------------------------------------------
  xx     177.378751    -205.171069     -27.792318
  yy     179.186084    -201.592538     -22.406454
  zz       9.761308     -37.639292     -27.877983
  xy      -0.245676      -0.476165      -0.721841
  xz     -26.477452      26.503594       0.026142
  yz     -31.828164      30.888987      -0.939177
 
     1/3  trace=     -26.025585
     anisotropy=       5.804104
 
 ==============================================================================
 


    ------------------------------------------------------------------------
         total  cpu-time :  1 minutes and 23 seconds
         total wall-time :  17.12 seconds
    ------------------------------------------------------------------------

   ****  ridft : all done  ****


    2019-03-12 22:20:42.640 

