Using Slurm to start processes with PMI2
STARTING ridft ON 8 PROCESSORS!
RUNNING PROGRAM /beegfs/modfac/apps/TURBOMOLE/7.0_intel_GA/bin/em64t-unknown-linux-gnu_mpi/ridft_mpi.
PLEASE WAIT UNTIL ridft HAS FINISHED.
Look for the output in slave1.output.
  this is node-proc. number 1 running on node c-5-14.local
  the total number of node-proc. spawned is            8
  parallel platform: MPP, or cluster with fast interconnect

 ridft (c-5-14.local) : TURBOMOLE V7.0.2( ) 15 Jan 2016 at 17:47:42
 Copyright (C) 2016 TURBOMOLE GmbH, Karlsruhe


    2018-01-11 16:46:36.738 



                                  r i d f t

                        DFT program with RI approximation 
                                for coulomb part 




                                                 
                                 References:     
                                                 
          TURBOMOLE:                             
              R. Ahlrichs, M. Baer, M. Haeser, H. Horn, and
              C. Koelmel
              Electronic structure calculations on workstation
              computers: the program system TURBOMOLE
              Chem. Phys. Lett. 162: 165 (1989)
          Density Functional:                              
              O. Treutler and R. Ahlrichs                      
              Efficient Molecular Numerical Integration Schemes
              J. Chem. Phys. 102: 346 (1995)                   
          Parallel Version:                                
              Performance of parallel TURBOMOLE for Density    
              Functional Calculations                          
              M. v. Arnim and R. Ahlrichs                      
              J. Comp. Chem. 19: 1746 (1998)                   
          RI-J Method:                                     
              Auxiliary Basis Sets to approximate Coulomb      
              Potentials                                       
              Chem. Phys. Lett. 240: 283 (1995)                
              K. Eichkorn, O. Treutler, H. Oehm, M. Haeser     
              and R. Ahlrichs                                  
              Chem. Phys. Lett. 242: 652 (1995)                
                                                           
              Auxiliary Basis Sets for Main Row Atoms and their
              Use to approximate Coulomb Potentials            
              K. Eichkorn, F. Weigend, O. Treutler and         
              R. Ahlrichs                                      
              Theo. Chem. Acc. 97: 119 (1997)                   
                                                           
              Accurate Coulomb-fitting basis sets for H to Rn 
              F. Weigend                                        
              Phys. Chem. Chem. Phys. 8: 1057 (2006)            
                                                           
          Multipole accelerated RI-J (MARI-J):             
              Fast evaluation of the Coulomb potential for     
              electron densities using multipole accelerated   
              resolution of identity approximation             
              M. Sierka, A. Hogekamp and R. Ahlrichs           
              J. Chem. Phys. 118: 9136 (2003)                  
          RI-JK Method:                                     
              A fully direct RI-HF algorithm: Implementation,
              optimised auxiliary basis sets, demonstration of
              accuracy and efficiency                         
              F. Weigend                                      
              Phys. Chem. Chem. Phys. 4: 4285 (2002)           
          Two-component HF and DFT with spin-orbit coupling:  
              Self-consistent treatment of spin-orbit         
              interactions with efficient Hartree-Fock and    
              density functional methods                      
              M. K. Armbruster, F. Weigend, C. van Wüllen and 
              W. Klopper                                      
              Phys. Chem. Chem. Phys. 10: 1748 (2008)         
          Relativistic all-electron 2c calculations           
              An efficient implementation of two-component    
              relativistic exact-decoupling methods for large 
              molecules                                       
              D. Peng, N. Middendorf, F. Weigend, M. Reiher   
              J. Chem. Phys. 138, 184105 (2013)               
                                         


 


              +--------------------------------------------------+
              |      general information about current run       |
              +--------------------------------------------------+

 

 SCF run will be profiled !


 DENSITY CONVERGENCE CHECK SWITCHED ON !
 SCF CONVERGENCE IF RMS(delta[D]) <     0.1000000000E-06

 PBE functional
 exchange:    LDA + PBE
 correlation: LDA (PW) + PBE
 A DFT calculation using the RI-J approximation will be carried out.
 Allocatable memory for RI due to $ricore (MB):       20000


              +--------------------------------------------------+
              | Atomic coordinate, charge and isotop information |
              +--------------------------------------------------+

                    atomic coordinates            atom    charge  isotop
          1.11256965   -0.03699403    8.43304176    c      6.000     0
         -0.99286022   -0.06614816    6.91307324    c      6.000     0
         -0.75453344   -0.04439855    4.23383521    c      6.000     0
          1.72968560    0.00926155    3.13041940    c      6.000     0
          3.86354583    0.03841454    4.76639235    c      6.000     0
          3.56546497    0.01582646    7.34917989    c      6.000     0
          1.97806724    0.03165726    0.48292329    c      6.000     0
         -0.10772818    0.00341984   -1.12527257    c      6.000     0
         -2.59220707   -0.05155872   -0.00694588    c      6.000     0
         -2.85484045   -0.07351469    2.61611947    c      6.000     0
          0.11071962    0.02692614   -3.87682645    c      6.000     0
         -2.12751944   -0.00797521   -5.37470030    c      6.000     0
         -4.56049290   -0.06402033   -4.17111634    c      6.000     0
         -4.78139564   -0.08394900   -1.61256189    c      6.000     0
         -1.94004727    0.01390725   -8.03459792    c      6.000     0
          0.38915905    0.07011224   -9.21970093    c      6.000     0
          2.60074598    0.10555292   -7.75516752    c      6.000     0
          2.45573747    0.08400702   -5.13837644    c      6.000     0
         -2.06707693   -6.18906568   -5.32903752    c      0.000     0
          0.18301072   -6.63474417   -6.67060154    c      0.000     0
          2.38678363   -7.15176058   -5.27556526    c      0.000     0
          2.34070644   -7.20407481   -2.65885563    c      0.000     0
          0.09622126   -6.72785249   -1.31521972    c      0.000     0
         -2.10794377   -6.23227502   -2.71166799    c      0.000     0
          0.24145579   -6.49707800   -9.43597063    c      0.000     0
         -1.98434963   -6.62308135  -10.89375999    c      0.000     0
         -1.89113927   -6.35445470  -13.47793931    c      0.000     0
          0.34077318   -5.99426988  -14.67755938    n      0.000     0
          2.53646052   -5.93806545  -13.35869891    c      0.000     0
          2.52337171   -6.18876805  -10.76963843    c      0.000     0
          0.38681466   -5.36488393  -17.43736682    c      0.000     0
          0.29187935   -2.52440653  -17.71236941    c      0.000     0
         -2.02423382   -1.24838899  -17.72695393    c      0.000     0
         -2.08279208    1.38405243  -17.71364384    c      0.000     0
          0.17427943    2.76159645  -17.68611204    c      0.000     0
          2.48924591    1.48593002  -17.75675322    c      0.000     0
          2.54789148   -1.14645754  -17.76961053    c      0.000     0
          0.14280075    5.60044585  -17.38166204    c      0.000     0
          0.07941045    6.19688215  -14.61478853    n      0.000     0
          2.28057535    6.22325536  -13.30413080    c      0.000     0
          2.26637236    6.44111697  -10.71213236    c      0.000     0
         -0.02187434    6.63001362   -9.36691475    c      0.000     0
         -2.25672777    6.67434924  -10.81568671    c      0.000     0
         -2.16172273    6.44174682  -13.40332517    c      0.000     0
         -0.07570753    6.72878866   -6.59967577    c      0.000     0
          2.10940755    7.32096836   -5.20512081    c      0.000     0
          2.07182619    7.33491189   -2.58780174    c      0.000     0
         -0.14495314    6.74453253   -1.24348118    c      0.000     0
         -2.33157150    6.17464990   -2.63891354    c      0.000     0
         -2.29930367    6.16872183   -5.25682447    c      0.000     0
         -0.16617930    6.70301072    1.53864128    c      0.000     0
          2.06953055    6.29228006    2.91178489    c      0.000     0
          2.05900591    6.23196171    5.52868161    c      0.000     0
         -0.19869469    6.55640293    6.89071759    c      0.000     0
         -2.43938983    6.97645428    5.52216489    c      0.000     0
         -2.41998763    7.05399125    2.90488796    c      0.000     0
         -0.21501550    6.40547712    9.65707823    c      0.000     0
          2.01578655    6.68288835   11.08543944    c      0.000     0
          1.97115840    6.43266196   13.67380148    c      0.000     0
         -0.21780039    5.94152289   14.90373730    n      0.000     0
         -2.41926198    5.71960971   13.61129709    c      0.000     0
         -2.45420415    5.94497807   11.01948479    c      0.000     0
         -0.20120349    5.35826648   17.67507812    c      0.000     0
         -0.11334332    2.52186957   17.98724330    c      0.000     0
          2.18663745    1.22268985   17.84478138    c      0.000     0
          2.21796967   -1.40895618   17.83150247    c      0.000     0
         -0.05049273   -2.76391363   17.95988233    c      0.000     0
         -2.34021114   -1.46616651   18.20187537    c      0.000     0
         -2.37151219    1.16748225   18.21589109    c      0.000     0
         -0.07045560   -5.59819915   17.61759775    c      0.000     0
         -0.06165439   -6.15061882   14.83983470    n      0.000     0
         -2.26372863   -5.97416262   13.54147039    c      0.000     0
         -2.28263175   -6.16729225   10.94678702    c      0.000     0
         -0.02586015   -6.54580780    9.58833679    c      0.000     0
          2.20659352   -6.77948755   11.02180556    c      0.000     0
          2.14495973   -6.56482355   13.61301277    c      0.000     0
          0.06354790   -6.72700287    1.46726727    c      0.000     0
         -2.18025244   -7.18264192    2.81909420    c      0.000     0
         -2.21257243   -7.14219705    5.43715310    c      0.000     0
          0.00577311   -6.65793017    6.82042790    c      0.000     0
          2.25472031   -6.22947577    5.47300461    c      0.000     0
          2.27697939   -6.25126545    2.85564547    c      0.000     0
          1.59705083   -6.50924670   18.41382460    h      0.000     0
         -1.79738467   -6.43895550   18.37921256    h      0.000     0
          4.00962771   -2.40429119   17.69319190    h      0.000     0
          3.95402762    2.26181755   17.71640511    h      0.000     0
         -4.14787743    2.19580016   18.36663889    h      0.000     0
         -4.09182192   -2.53786346   18.34022884    h      0.000     0
         -1.94436397    6.14963787   18.45282155    h      0.000     0
          1.44795257    6.29950543   18.47426012    h      0.000     0
          3.64648660    6.61495212   14.83405346    h      0.000     0
          3.80673556    7.11507533   10.19652758    h      0.000     0
         -4.24942602    5.70718759   10.06696757    h      0.000     0
         -4.10038181    5.39910139   14.75884859    h      0.000     0
          3.81184841    5.83405549    6.51055118    h      0.000     0
          3.82806642    5.93761418    1.92131253    h      0.000     0
         -4.17207065    7.43416938    1.91028031    h      0.000     0
         -4.20977994    7.29422193    6.50595820    h      0.000     0
          3.77871074    7.84952797   -1.57521845    h      0.000     0
          3.84809940    7.82353781   -6.16756967    h      0.000     0
         -4.00500053    5.63369255   -6.25770828    h      0.000     0
         -4.05534586    5.63900722   -1.67021668    h      0.000     0
          4.06863630    6.39555794   -9.74531105    h      0.000     0
          3.99868185    6.07735849  -14.43635152    h      0.000     0
         -3.83684419    6.43935688  -14.57819266    h      0.000     0
         -4.09310863    6.89599541   -9.94218877    h      0.000     0
         -1.52568513    6.46851007  -18.22276270    h      0.000     0
          1.86612912    6.45977462  -18.12892401    h      0.000     0
         -3.88941543    2.36142124  -17.70766304    h      0.000     0
         -3.78572143   -2.30500366  -17.73109640    h      0.000     0
          4.34122722   -2.15594640  -17.80694472    h      0.000     0
          4.23609192    2.57434651  -17.78435644    h      0.000     0
          2.14930647   -6.13804893  -18.18709941    h      0.000     0
         -1.23806523   -6.29784153  -18.29425974    h      0.000     0
         -3.56054431   -6.41449999  -14.65935168    h      0.000     0
         -3.81171235   -6.93811003  -10.03008976    h      0.000     0
          4.31835265   -6.07473574   -9.79504279    h      0.000     0
          4.25050997   -5.70136686  -14.48185083    h      0.000     0
         -3.79076247   -5.71429693   -6.32961860    h      0.000     0
         -3.85659939   -5.78532002   -1.74266953    h      0.000     0
          4.06460778   -7.65968193   -1.64694187    h      0.000     0
          4.14879357   -7.56597324   -6.23775239    h      0.000     0
         -3.91304022   -7.61508099    1.81221127    h      0.000     0
         -3.97304072   -7.54011820    6.40967042    h      0.000     0
          3.98710558   -5.77934868    6.46862496    h      0.000     0
          4.02451762   -5.81558947    1.87814173    h      0.000     0
         -4.08000017   -5.96771223    9.98933744    h      0.000     0
         -3.95717836   -5.71325229   14.68624040    h      0.000     0
          3.81994721   -6.71674676   14.77816216    h      0.000     0
          4.01201141   -7.15002071   10.13417927    h      0.000     0
          4.19636837    0.11259064   -4.05550554    h      1.000     0
          4.43747607    0.15003140   -8.67030633    h      1.000     0
          0.50882275    0.08681402  -11.26937839    h      1.000     0
         -3.67102110   -0.01388155   -9.14153070    h      1.000     0
         -6.23205638   -0.08960590   -5.36576378    h      1.000     0
         -6.63229679   -0.12540884   -0.72130317    h      1.000     0
         -4.74342897   -0.11484263    3.42748492    h      1.000     0
          5.21304915    0.03882839    8.57394749    h      1.000     0
          5.74243155    0.07937965    3.93572355    h      1.000     0
          3.87807140    0.07224631   -0.29127464    h      1.000     0
          0.90917049   -0.05396529   10.47668042    h      1.000     0
         -2.87591127   -0.10622358    7.73367907    h      1.000     0
          7.27996621   -6.26715918  -17.76848312    cl     0.000     0
          6.98253542    6.82663414  -17.72972390    cl     0.000     0
         -6.84502099   -6.78368558   18.05938775    cl     0.000     0
         -6.97968193    6.40160752   18.16055235    cl     0.000     0
 
       center of nuclear mass  :   -0.00646088    0.00385397    0.01333558
       center of nuclear charge:   -0.13920750   -0.00117399   -0.46424364

              +--------------------------------------------------+
              |               basis set information              |
              +--------------------------------------------------+

              we will work with the 1s 3p 5d 7f 9g ... basis set
              ...i.e. with spherical basis functions...

   type   atoms  prim   cont   basis
   ---------------------------------------------------------------------------
    c       78     77     55   cc-pVQZ   [5s4p3d2f1g|21s6p3d2f1g]
    n        4     77     55   cc-pVQZ   [5s4p3d2f1g|21s6p3d2f1g]
    h       60     32     30   cc-pVQZ   [4s3p2d1f|6s3p2d1f]
    cl       4    137     59   cc-pVQZ   [6s5p3d2f1g|42s19p3d2f1g]
   ---------------------------------------------------------------------------
   total:  146   8782   6546
   ---------------------------------------------------------------------------

   total number of primitive shells          :  145
   total number of contracted shells         : 1898
   total number of cartesian basis functions : 8136
   total number of SCF-basis functions       : 6546


 integral neglect threshold       :  0.41E-14
 integral storage threshold THIZE :  0.10E-04
 integral storage threshold THIME :         5

 RI-J AUXILIARY BASIS SET information:

              we will work with the 1s 3p 5d 7f 9g ... basis set
              ...i.e. with spherical basis functions...

   type   atoms  prim   cont   basis
   ---------------------------------------------------------------------------
    c       78     70     49   cc-pVQZ   [6s4p3d1f1g|12s5p4d2f1g]
    n        4     70     49   cc-pVQZ   [6s4p3d1f1g|12s5p4d2f1g]
    h       60     16     11   cc-pVQZ   [3s1p1d|5s2p1d]
    cl       4     77     51   cc-pVQZ   [8s4p3d1f1g|14s5p5d2f1g]
   ---------------------------------------------------------------------------
   total:  146   7008   4882
   ---------------------------------------------------------------------------

   total number of primitive shells          :   83
   total number of contracted shells         : 1598
   total number of cartesian basis functions : 5974
   total number of SCF-basis functions       : 4882


 symmetry group of the molecule :   c1 

 the group has the following generators :
   c1(z)

    1 symmetry operations found

 there are 1 real representations :   a   

 maximum number of shells which are related by symmetry :  1


    mo occupation :
   irrep   mo's   occupied
    a     6546       60
 
 number of basis functions   :         6546
 number of occupied orbitals :           60
 
  
           ------------------
           density functional
           ------------------
 Dummy atoms with grid-point found.
 DFT quadrature threshold dgrenze tightened by factor 1/10.

 PBE functional
 exchange:    LDA + PBE
 correlation: LDA (PW) + PBE
 Dummy atoms with grid-point found.
 DFT quadrature threshold dgrenze tightened by factor 1/10.

 Dummy atoms with grid-point found.
 DFT quadrature threshold dgrenze tightened by factor 1/10.

 grinp -> nfun, dfgga, dfhybrid 
           6 T F
 iterations will be done with small grid
  
 spherical integration : Lebedev's spherical grid
 spherical gridsize    :           5
    i.e. gridpoints    :         590
 value for diffuse not defined
 radial integration    : Chebyshev 2nd kind (scaling 3)
 radial gridsize       :           8
 integration cells     :         146
 partition function    : becke
 partition sharpness   :           3
  
 found dummy atom(s) with basis: included in dft

 <rddim> : input of entry tasksize
           from data group '$pardft' failed !

               Default values taken

 <rddim> : input of entry memdiv
           from data group '$pardft' failed !

               Default values taken
  RIDFT: memory allocation for DFT gridpoints
  MEMORY is divided by 1 as DEFAULT
 Each node can hold at most  the            1 -th part
 of the gridpoints    

 biggest AO integral is expected to be    10.299525420
  
           ------------------------
               RI-J - INFORMATION
           ------------------------
 
 
 **************************************************
 *      MEMORY ALLOCATION FOR PARALLEL RI-DFT     *
 **************************************************
 
 
MEMORY FOR (MU NU/ ALPHA), SEQUENTIAL RUN              19815 MByte
 
            DIFFERENCE IN MEMORY NEED:       DIAG./SLAVE  
 
      TOTAL DIFFERENCE :                   1924 MByte
 
      difference in xcore:                  186 MByte
      difference in fatmat:                 579 MByte
      getcor calls skipped by slaves:      1160 MByte
 
 
           Integral memory available for diagonal.     19815 MByte
 
           Integral memory available for slave             0 MByte
 
         MEMORY FOR (MU NU/ ALPHA) ON DIAGONALIZER     19815 MByte
 
         MEMORY FOR (MU NU/ ALPHA) ON ONE SLAVE            0 MByte
 
         TOTAL MEMORY FOR (MU NU/ ALPHA),ALL NODES     19815 MByte
 
 Contributions to RI integral batches: 
  neglected integral batches:     1303189
  direct contribution:             399391
  memory contribution:       99571
 Memory core needed for (P|Q) and Cholesky    182 MByte
 Memory core minimum needed except of (P|Q)     7 MByte
 Total minimum memory core needed (sum)       189 MByte
     number of direct tasks:         160
  
 ****************************************
 Memory allocated for RI-J 20003 MByte
 ****************************************
                                            

          ------------------------
          nuclear repulsion energy  :   1128.55454914    
          ------------------------

 
          -----------------
          -S integrals
          -----------------

 1e-integrals will be neglected if expon. factor < 0.410762E-15
 
          -----------------
          -T+V integrals
          -----------------

 1e-integrals will be neglected if expon. factor < 0.410762E-15
 Difference densities >>NOT<< switched on in parallel ridft!

 automatic virtual orbital shift switched on 
      shift if e(lumo)-e(homo) < 0.10000000    


 DIIS switched on: error vector is FDS-SDF
 Max. Iterations for DIIS is     :   4
 DIIS matrix (see manual) 
    Scaling factor of diagonals  :  1.200
    threshold for scaling factor :  0.000

 scf convergence criterion : increment of total energy < .1000000D-08
                  and increment of one-electron energy < .1000000D-05


 <geterg> : there is no data group $energy 

  MOs are in ASCII format !


 reading orbital data $scfmo  from file mos . 

 orbital characterization : expanded
 
 mo provided and orthogonalized by Cholesky decomposition

 DSCF restart information will be dumped onto file mos


 Starting SCF iterations


 ITERATION  ENERGY          1e-ENERGY        2e-ENERGY     RMS[dD(SAO)]   TOL
   1  -690.52767040439    -3146.1251225     1327.0429030    0.000D+00 0.410D-14
                            Exc = -98.7562910806     Coul =  1425.79919406    
                              N = 119.99867566    
                            current damping = 0.700
 
          max. resid. norm for Fia-block=  2.669D-01 for orbital     12a         
          max. resid. fock norm         =  1.914D+01 for orbital   5979a         

 ITERATION  ENERGY          1e-ENERGY        2e-ENERGY     RMS[dD(SAO)]   TOL
   2  -692.12937690273    -3166.0181234     1345.3341974    0.165D-02 0.410D-14
                            Exc = -100.471953232     Coul =  1445.80615062    
                              N = 119.99901664    
                            current damping = 0.650
 
          Norm of current diis error:  4.7269    
          max. resid. norm for Fia-block=  1.159D-01 for orbital     21a         
          max. resid. fock norm         =  1.365D-01 for orbital     20a         

 ITERATION  ENERGY          1e-ENERGY        2e-ENERGY     RMS[dD(SAO)]   TOL
   3  -692.45105830381    -3170.2677373     1349.2621299    0.686D-03 0.410D-14
                            Exc = -100.920232048     Coul =  1450.18236192    
                              N = 119.99916735    
                            current damping = 0.550
 
          Norm of current diis error:  2.2741    
          max. resid. norm for Fia-block=  5.732D-02 for orbital     20a         
          max. resid. fock norm         =  6.524D-02 for orbital     20a         

 ITERATION  ENERGY          1e-ENERGY        2e-ENERGY     RMS[dD(SAO)]   TOL
   4  -692.54213769585    -3174.0498362     1352.9531494    0.321D-03 0.410D-14
                            Exc = -101.218145679     Coul =  1454.17129504    
                              N = 119.99924085    
                            current damping = 0.450
 
          Norm of current diis error: 0.86149    
          max. resid. norm for Fia-block=  2.257D-02 for orbital     20a         
          max. resid. fock norm         =  2.599D-02 for orbital     20a         

 ITERATION  ENERGY          1e-ENERGY        2e-ENERGY     RMS[dD(SAO)]   TOL
   5  -692.55652443185    -3174.5528444     1353.4417709    0.144D-03 0.410D-14
                            Exc = -101.313084281     Coul =  1454.75485516    
                              N = 119.99926303    
                            current damping = 0.300
 
          Norm of current diis error: 0.37706    
          max. resid. norm for Fia-block=  7.952D-03 for orbital     21a         
          max. resid. fock norm         =  1.111D-02 for orbital   6455a         
          mo-orthogonalization: Cholesky decomposition

 ITERATION  ENERGY          1e-ENERGY        2e-ENERGY     RMS[dD(SAO)]   TOL
   6  -692.55857703634    -3175.6452390     1354.5321128    0.551D-04 0.410D-14
                            Exc = -101.373113725     Coul =  1455.90522655    
                              N = 119.99927179    
                            current damping = 0.200
 
          Norm of current diis error: 0.22627    
          max. resid. norm for Fia-block=  3.365D-03 for orbital     55a         
          max. resid. fock norm         =  6.836D-03 for orbital   6454a         

 ITERATION  ENERGY          1e-ENERGY        2e-ENERGY     RMS[dD(SAO)]   TOL
   7  -692.55943621758    -3175.3936376     1354.2796523    0.220D-04 0.410D-14
                            Exc = -101.374549544     Coul =  1455.65420183    
                              N = 119.99927181    
                            current damping = 0.250
 
          Norm of current diis error: 0.95260E-01
          max. resid. norm for Fia-block=  1.887D-03 for orbital     59a         
          max. resid. fock norm         =  4.074D-03 for orbital   6456a         

 ITERATION  ENERGY          1e-ENERGY        2e-ENERGY     RMS[dD(SAO)]   TOL
   8  -692.55951389112    -3175.3961936     1354.2821306    0.724D-05 0.410D-14
                            Exc = -101.373366211     Coul =  1455.65549678    
                              N = 119.99927223    
                            current damping = 0.300
 
          Norm of current diis error: 0.73820E-01
          max. resid. norm for Fia-block=  8.678D-04 for orbital     59a         
          max. resid. fock norm         =  1.861D-03 for orbital   6456a         

 ITERATION  ENERGY          1e-ENERGY        2e-ENERGY     RMS[dD(SAO)]   TOL
   9  -692.55963020433    -3175.4159007     1354.3017213    0.320D-05 0.410D-14
                            Exc = -101.374347544     Coul =  1455.67606888    
                              N = 119.99927202    
                            current damping = 0.150
 
          Norm of current diis error: 0.11036E-01
          max. resid. norm for Fia-block=  3.066D-04 for orbital     60a         
          max. resid. fock norm         =  6.347D-04 for orbital   6447a         

 ITERATION  ENERGY          1e-ENERGY        2e-ENERGY     RMS[dD(SAO)]   TOL
  10  -692.55962727329    -3175.4500829     1354.3359065    0.131D-05 0.410D-14
                            Exc = -101.375922017     Coul =  1455.71182847    
                              N = 119.99927240    
                            current damping = 0.200
 
          Norm of current diis error: 0.15723E-01
          max. resid. norm for Fia-block=  1.665D-04 for orbital     60a         
          max. resid. fock norm         =  3.131D-04 for orbital   6446a         
          mo-orthogonalization: Cholesky decomposition

 ITERATION  ENERGY          1e-ENERGY        2e-ENERGY     RMS[dD(SAO)]   TOL
  11  -692.55963251904    -3175.4352369     1354.3210553    0.620D-06 0.410D-14
                            Exc = -101.375442051     Coul =  1455.69649732    
                              N = 119.99927221    
                            current damping = 0.250
 
          Norm of current diis error: 0.41090E-02
          max. resid. norm for Fia-block=  6.187D-05 for orbital     59a         
          max. resid. fock norm         =  1.498D-04 for orbital   6447a         

 ITERATION  ENERGY          1e-ENERGY        2e-ENERGY     RMS[dD(SAO)]   TOL
  12  -692.55963273445    -3175.4311724     1354.3169905    0.260D-06 0.410D-14
                            Exc = -101.375061807     Coul =  1455.69205233    
                              N = 119.99927217    
                            current damping = 0.100
 
          Norm of current diis error: 0.25476E-02
          max. resid. norm for Fia-block=  4.182D-05 for orbital     60a         
          max. resid. fock norm         =  8.277D-05 for orbital   6462a         

 ITERATION  ENERGY          1e-ENERGY        2e-ENERGY     RMS[dD(SAO)]   TOL
  13  -692.55963283963    -3175.4289607     1354.3147788    0.165D-06 0.410D-14
                            Exc = -101.375069755     Coul =  1455.68984852    
                              N = 119.99927215    
                            current damping = 0.050
 
          Norm of current diis error: 0.13970E-02
          max. resid. norm for Fia-block=  2.120D-05 for orbital     60a         
          max. resid. fock norm         =  4.836D-05 for orbital   6462a         
          irrep a   : virtual orbitals shifted by    0.00359

 DENSITY CONVERGED !


 ITERATION  ENERGY          1e-ENERGY        2e-ENERGY     RMS[dD(SAO)]   TOL
  14  -692.55963287013    -3175.4302486     1354.3160666    0.832D-07 0.410D-14
                            Exc = -101.375101002     Coul =  1455.69116761    
                              N = 119.99927216    
                            current damping = 0.100
 
          Norm of current diis error: 0.83674E-03
          max. resid. norm for Fia-block=  1.126D-05 for orbital     59a         
          max. resid. fock norm         =  2.604D-05 for orbital     14a         

 DENSITY CONVERGED !


 ITERATION  ENERGY          1e-ENERGY        2e-ENERGY     RMS[dD(SAO)]   TOL
  15  -692.55963288188    -3175.4300230     1354.3158410    0.464D-07 0.410D-14
                            Exc = -101.375094266     Coul =  1455.69093522    
                              N = 119.99927216    
                            current damping = 0.150
 
          Norm of current diis error: 0.37974E-03
          max. resid. norm for Fia-block=  7.198D-06 for orbital     60a         
          max. resid. fock norm         =  1.583D-05 for orbital   6456a         
          mo-orthogonalization: Cholesky decomposition

 DENSITY CONVERGED !


 ITERATION  ENERGY          1e-ENERGY        2e-ENERGY     RMS[dD(SAO)]   TOL
  16  -692.55963288324    -3175.4301294     1354.3159474    0.274D-07 0.410D-14
                            Exc = -101.375095341     Coul =  1455.69104270    
                              N = 119.99927217    
                            current damping = 0.200
 
          Norm of current diis error: 0.28192E-03
          max. resid. norm for Fia-block=  4.102D-06 for orbital     60a         
          max. resid. fock norm         =  8.445D-06 for orbital   6456a         

 DENSITY CONVERGED !


 ITERATION  ENERGY          1e-ENERGY        2e-ENERGY     RMS[dD(SAO)]   TOL
  17  -692.55963288501    -3175.4300145     1354.3158325    0.146D-07 0.410D-14
                            Exc = -101.375091699     Coul =  1455.69092422    
                              N = 119.99927216    
                            current damping = 0.250
 
          Norm of current diis error: 0.60123E-04
          max. resid. norm for Fia-block=  1.015D-06 for orbital     60a         
          max. resid. fock norm         =  2.845D-06 for orbital   6448a         

 ENERGY & DENSITY CONVERGED !


 ITERATION  ENERGY          1e-ENERGY        2e-ENERGY     RMS[dD(SAO)]   TOL
  18  -692.55969778154    -3175.4300200     1354.3157731    0.390D-08 0.410D-14
                            Exc = -101.375157751     Coul =  1455.69093084    
                              N = 120.00007780    
                            current damping = 0.300
 
          Norm of current diis error: 0.36361E-04
          max. resid. norm for Fia-block=  5.247D-07 for orbital     56a         
          max. resid. fock norm         =  1.346D-06 for orbital   6455a         

 End of SCF iterations

   convergence criteria satisfied after   18 iterations


                  ------------------------------------------ 
                 |  total energy      =   -692.55969778154  |
                  ------------------------------------------ 
                 :  kinetic energy    =    689.19641194503  :
                 :  potential energy  =  -1381.75610972658  :
                 :  virial theorem    =      1.99514368819  :
                 :  wavefunction norm =      1.00000000000  :
                  .......................................... 


 <geterg> : there is no data group $energy 


 <skperg> : $end is missing 


 orbitals $scfmo  will be written to file mos

    irrep                 56a         57a         58a         59a         60a   
 eigenvalues H         -0.26745    -0.24893    -0.23223    -0.20794    -0.18647
            eV          -7.2776     -6.7737     -6.3194     -5.6583     -5.0741
 occupation              2.0000      2.0000      2.0000      2.0000      2.0000 

    irrep                 61a         62a         63a         64a         65a   
 eigenvalues H         -0.09465    -0.07328    -0.04637    -0.03447    -0.01445
            eV          -2.5756     -1.9941     -1.2618     -0.9380     -0.3933
 
 
 ! grave: sending quit signal to master process
 
 
 
 
 ==============================================================================
                           electrostatic moments
 ==============================================================================

 reference point for electrostatic moments:    0.00000   0.00000   0.00000

 
              nuc           elec       ->  total
 ------------------------------------------------------------------------------
                          charge      
 ------------------------------------------------------------------------------
         120.000000    -120.000000      -0.000000
 
 ------------------------------------------------------------------------------
                       dipole moment  
 ------------------------------------------------------------------------------
   x     -16.704900      16.713410       0.008510
   y      -0.140878       0.141470       0.000592
   z     -55.709237      55.701779      -0.007458
 
   | dipole moment | =     0.0113 a.u. =     0.0288 debye 
 
 ------------------------------------------------------------------------------
                     quadrupole moment
 ------------------------------------------------------------------------------
  xx     943.408947   -1011.718291     -68.309344
  yy       0.430163     -83.462444     -83.032282
  zz    3792.243864   -3860.377848     -68.133984
  xy      15.637641     -15.350712       0.286928
  xz     407.346899    -407.327908       0.018991
  yz     -18.055016      17.953744      -0.101273
 
     1/3  trace=     -73.158536
     anisotropy=      14.820806
 
 ==============================================================================
 

    ridft profiling
  --------------------------------------------------------------------
             module   cpu total (s)       %  wall total (s)       %

               RIDFT         19433.2  100.00         20846.5  100.00
         Ridft_b_scf           897.6    4.62           897.1    4.30
        b_scf_prelim             0.0    0.00             0.0    0.00
        b_scf_molinp             0.0    0.00             0.0    0.00
         b_scf_init0             0.0    0.00             0.0    0.00
        b_scf_auxbas             0.0    0.00             0.0    0.00
      b_scf_symmetry             0.0    0.00             0.0    0.00
         b_scf_cosmo             0.0    0.00             0.0    0.00
        b_scf_params            46.8    0.24            46.8    0.22
          b_scf_ri-j           201.6    1.04           201.5    0.97
    b_scf_ri-j_auxpq           201.4    1.04           201.3    0.97
     ri-j_auxpq_chol            16.1    0.08            16.1    0.08
         b_scf_1elec            11.3    0.06            11.4    0.05
       b_scf_moinput           637.8    3.28           637.4    3.06
     moinput_orthmos           634.8    3.27           634.3    3.04
    b_scf_dft-dstmax             0.0    0.00             0.0    0.00
           Ridft_scf         18529.5   95.35         19943.0   95.67
          Scf_b_loop             0.0    0.00             0.0    0.00
                noga             0.0    0.00             0.0    0.00
            Scf_loop         18500.6   95.20         19911.7   95.52
     scf_loop_mkdmat            59.8    0.31            69.7    0.33
       scf_loop_ri-j          3548.8   18.26          4718.7   22.64
      parlp1.bc.dens            26.7    0.14            26.8    0.13
        parlp1.gs.gp             2.2    0.01             2.2    0.01
        parlp2.bc.gq             0.0    0.00             0.0    0.00
        scf_loop_dft          8154.7   41.96          8173.8   39.21
      pardft.bc.dens             0.0    0.00             0.0    0.00
        dft_grid_con            67.7    0.35            68.9    0.33
           dft_xcrhf          7806.6   40.17          7813.5   37.48
          dft_getval           166.9    0.86           167.9    0.81
          funct2 dst             2.7    0.01             3.6    0.02
      funct2 f2loop1            29.6    0.15            29.6    0.14
      funct2 f2loop2            75.6    0.39            75.5    0.36
          funct2 s+c            57.0    0.29            57.2    0.27
        funct2 cmf_2            51.8    0.27            52.0    0.25
          dft_mkdens          3787.5   19.49          3793.6   18.20
         dft_gga-fun             1.4    0.01             1.7    0.01
          dft_mkfock          3848.8   19.81          3848.5   18.46
     pardft.red.fock           763.2    3.93           781.6    3.75
     scf_loop_energy             1.4    0.01            46.8    0.22
     scf_loop_mkfock             1.2    0.01             1.2    0.01
       scf_loop_diis          3834.6   19.73          3921.4   18.81
       scf_loop_diag          1858.6    9.56          1887.5    9.05
         diag_tritrn           692.7    3.56           719.7    3.45
          diag_rdiag          1163.6    5.99          1165.0    5.59
     scf_loop_modump           443.2    2.28           492.7    2.36
      scf_loop_ortho           576.3    2.97           576.0    2.76
          Scf_a_loop            28.8    0.15            31.3    0.15
         Ridft_a_scf             6.1    0.03             6.4    0.03
         a_scf_fanal             4.1    0.02             4.2    0.02
 


    ------------------------------------------------------------------------
         total  cpu-time :  5 hours 24 minutes and 27 seconds
         total wall-time :  5 hours 48 minutes and  1 seconds
    ------------------------------------------------------------------------


   ****  ridft : all done  ****


    2018-01-11 22:34:37.753 

