 operating system is UNIX !
 hostname is         c-8-39.local

 ridft (c-8-39.local) : TURBOMOLE V7.0( ) 6 Jul 2015 at 18:30:05
 Copyright (C) 2015 TURBOMOLE GmbH, Karlsruhe


    2015-12-21 22:21:06.753 



                                  r i d f t

                        DFT program with RI approximation 
                                for coulomb part 




                                                 
                                 References:     
                                                 
          TURBOMOLE:                             
              R. Ahlrichs, M. Baer, M. Haeser, H. Horn, and
              C. Koelmel
              Electronic structure calculations on workstation
              computers: the program system TURBOMOLE
              Chem. Phys. Lett. 162: 165 (1989)
          Density Functional:                              
              O. Treutler and R. Ahlrichs                      
              Efficient Molecular Numerical Integration Schemes
              J. Chem. Phys. 102: 346 (1995)                   
          Parallel Version:                                
              Performance of parallel TURBOMOLE for Density    
              Functional Calculations                          
              M. v. Arnim and R. Ahlrichs                      
              J. Comp. Chem. 19: 1746 (1998)                   
          RI-J Method:                                     
              Auxiliary Basis Sets to approximate Coulomb      
              Potentials                                       
              Chem. Phys. Lett. 240: 283 (1995)                
              K. Eichkorn, O. Treutler, H. Oehm, M. Haeser     
              and R. Ahlrichs                                  
              Chem. Phys. Lett. 242: 652 (1995)                
                                                           
              Auxiliary Basis Sets for Main Row Atoms and their
              Use to approximate Coulomb Potentials            
              K. Eichkorn, F. Weigend, O. Treutler and         
              R. Ahlrichs                                      
              Theo. Chem. Acc. 97: 119 (1997)                   
                                                           
              Accurate Coulomb-fitting basis sets for H to Rn 
              F. Weigend                                        
              Phys. Chem. Chem. Phys. 8: 1057 (2006)            
                                                           
          Multipole accelerated RI-J (MARI-J):             
              Fast evaluation of the Coulomb potential for     
              electron densities using multipole accelerated   
              resolution of identity approximation             
              M. Sierka, A. Hogekamp and R. Ahlrichs           
              J. Chem. Phys. 118: 9136 (2003)                  
          RI-JK Method:                                     
              A fully direct RI-HF algorithm: Implementation,
              optimised auxiliary basis sets, demonstration of
              accuracy and efficiency                         
              F. Weigend                                      
              Phys. Chem. Chem. Phys. 4: 4285 (2002)           
          Two-component HF and DFT with spin-orbit coupling:  
              Self-consistent treatment of spin-orbit         
              interactions with efficient Hartree-Fock and    
              density functional methods                      
              M. K. Armbruster, F. Weigend, C. van Wüllen and 
              W. Klopper                                      
              Phys. Chem. Chem. Phys. 10: 1748 (2008)         
          Relativistic all-electron 2c calculations           
              An efficient implementation of two-component    
              relativistic exact-decoupling methods for large 
              molecules                                       
              D. Peng, N. Middendorf, F. Weigend, M. Reiher   
              J. Chem. Phys. 138, 184105 (2013)               
                                         


 


              +--------------------------------------------------+
              |      general information about current run       |
              +--------------------------------------------------+

 

 DENSITY CONVERGENCE CHECK SWITCHED ON !
 SCF CONVERGENCE IF RMS(delta[D]) <     0.1000000000E-06

 PBE functional
 exchange:    LDA + PBE
 correlation: LDA (PW) + PBE
 A DFT calculation using the RI-J approximation will be carried out.
 Allocatable memory for RI due to $ricore (MB):        3000


              +--------------------------------------------------+
              | Atomic coordinate, charge and isotop information |
              +--------------------------------------------------+

                    atomic coordinates            atom    charge  isotop
          1.32806431   -2.24208101    6.34843055    c      6.000     0
          2.70844763    0.00000000    6.31729274    c      6.000     0
          1.32806431    2.24208101    6.34843055    c      6.000     0
         -1.32806431    2.24208101    6.34843055    c      6.000     0
         -2.70844763    0.00000000    6.31729274    c      6.000     0
         -1.32806431   -2.24208101    6.34843055    c      6.000     0
          2.15253009    5.01424302    6.35308105    c      6.000     0
          1.32834539    6.10776389    3.80593775    c      6.000     0
         -1.32834539    6.10776389    3.80593775    c      6.000     0
         -2.15253009    5.01424302    6.35308105    c      6.000     0
          2.70851858    6.96044202    1.73275172    c      6.000     0
          1.32795309    7.87035738   -0.31689469    c      6.000     0
         -1.32795309    7.87035738   -0.31689469    c      6.000     0
         -2.70851858    6.96044202    1.73275172    c      6.000     0
          0.00000000    6.12402693    8.04031204    c      6.000     0
          2.15253009   -5.01424302    6.35308105    c      6.000     0
         -2.15253009   -5.01424302    6.35308105    c      6.000     0
         -1.32834539   -6.10776389    3.80593775    c      6.000     0
          1.32834539   -6.10776389    3.80593775    c      6.000     0
         -2.70851858   -6.96044202    1.73275172    c      6.000     0
         -1.32795309   -7.87035738   -0.31689469    c      6.000     0
          1.32795309   -7.87035738   -0.31689469    c      6.000     0
          2.70851858   -6.96044202    1.73275172    c      6.000     0
          0.00000000   -6.12402693    8.04031204    c      6.000     0
          2.15477886   -8.93626657   -2.87481673    c      6.000     0
          1.32961275   -6.99043012   -4.84645710    c      6.000     0
         -1.32961275   -6.99043012   -4.84645710    c      6.000     0
         -2.15477886   -8.93626657   -2.87481673    c      6.000     0
          2.67470496   -5.37441161   -6.40503330    c      6.000     0
          1.31677288   -3.75153361   -8.00542845    c      6.000     0
         -1.31677288   -3.75153361   -8.00542845    c      6.000     0
         -2.67470496   -5.37441161   -6.40503330    c      6.000     0
          0.00000000  -10.91544546   -3.26336622    c      6.000     0
         -2.15477886    8.93626657   -2.87481673    c      6.000     0
         -1.32961275    6.99043012   -4.84645710    c      6.000     0
          1.32961275    6.99043012   -4.84645710    c      6.000     0
          2.15477886    8.93626657   -2.87481673    c      6.000     0
         -2.67470496    5.37441161   -6.40503330    c      6.000     0
         -1.31677288    3.75153361   -8.00542845    c      6.000     0
          1.31677288    3.75153361   -8.00542845    c      6.000     0
          2.67470496    5.37441161   -6.40503330    c      6.000     0
          0.00000000   10.91544546   -3.26336622    c      6.000     0
          4.76401118    0.00000000    6.31253851    h      1.000     0
         -4.76401118    0.00000000    6.31253851    h      1.000     0
          4.10202021    5.38285394    6.91332080    h      1.000     0
         -4.10202021    5.38285394    6.91332080    h      1.000     0
          4.76399407    6.95171137    1.72867501    h      1.000     0
         -4.76399407    6.95171137    1.72867501    h      1.000     0
          0.00000000    5.34317069    9.95578785    h      1.000     0
          0.00000000    8.19220932    8.08192626    h      1.000     0
          4.10202021   -5.38285394    6.91332080    h      1.000     0
         -4.10202021   -5.38285394    6.91332080    h      1.000     0
         -4.76399407   -6.95171137    1.72867501    h      1.000     0
          4.76399407   -6.95171137    1.72867501    h      1.000     0
          0.00000000   -5.34317069    9.95578785    h      1.000     0
          0.00000000   -8.19220932    8.08192626    h      1.000     0
          4.10387934   -9.59505171   -3.00191777    h      1.000     0
         -4.10387934   -9.59505171   -3.00191777    h      1.000     0
          4.72914806   -5.35846141   -6.40861026    h      1.000     0
          2.33198939   -2.48127973   -9.25759256    h      1.000     0
         -2.33198939   -2.48127973   -9.25759256    h      1.000     0
         -4.72914806   -5.35846141   -6.40861026    h      1.000     0
          0.00000000  -12.39110662   -1.81451860    h      1.000     0
          0.00000000  -11.73911387   -5.16086456    h      1.000     0
         -4.10387934    9.59505171   -3.00191777    h      1.000     0
          4.10387934    9.59505171   -3.00191777    h      1.000     0
         -4.72914806    5.35846141   -6.40861026    h      1.000     0
         -2.33198939    2.48127973   -9.25759256    h      1.000     0
          2.33198939    2.48127973   -9.25759256    h      1.000     0
          4.72914806    5.35846141   -6.40861026    h      1.000     0
          0.00000000   12.39110662   -1.81451860    h      1.000     0
          0.00000000   11.73911387   -5.16086456    h      1.000     0
 
       center of nuclear mass  :    0.00000000    0.00000000    0.11018997
       center of nuclear charge:    0.00000000   -0.00000000    0.09494256

              +--------------------------------------------------+
              |               basis set information              |
              +--------------------------------------------------+

              we will work with the 1s 3p 5d 7f 9g ... basis set
              ...i.e. with spherical basis functions...

   type   atoms  prim   cont   basis
   ---------------------------------------------------------------------------
    c       42     66     46   aug-cc-pVTZ   [5s4p3d2f|19s6p3d2f]
    h       30     25     23   aug-cc-pVTZ   [4s3p2d|6s3p2d]
   ---------------------------------------------------------------------------
   total:   72   3522   2622
   ---------------------------------------------------------------------------

   total number of primitive shells          :   41
   total number of contracted shells         :  858
   total number of cartesian basis functions : 3060
   total number of SCF-basis functions       : 2622


 integral neglect threshold       :  0.11E-13
 integral storage threshold THIZE :  0.10E-04
 integral storage threshold THIME :         5

 RI-J AUXILIARY BASIS SET information:

              we will work with the 1s 3p 5d 7f 9g ... basis set
              ...i.e. with spherical basis functions...

   type   atoms  prim   cont   basis
   ---------------------------------------------------------------------------
    c       42     70     49   aug-cc-pVTZ   [6s4p3d1f1g|12s5p4d2f1g]
    h       30     16     11   aug-cc-pVTZ   [3s1p1d|5s2p1d]
   ---------------------------------------------------------------------------
   total:   72   3420   2388
   ---------------------------------------------------------------------------

   total number of primitive shells          :   32
   total number of contracted shells         :  780
   total number of cartesian basis functions : 2922
   total number of SCF-basis functions       : 2388


 symmetry group of the molecule :   c1 

 the group has the following generators :
   c1(z)

    1 symmetry operations found

 there are 1 real representations :   a   

 maximum number of shells which are related by symmetry :  1


    mo occupation :
   irrep   mo's   occupied
    a     2622      141
 
 number of basis functions   :         2622
 number of occupied orbitals :          141
 
  
           ------------------
           density functional
           ------------------
 PBE functional
 exchange:    LDA + PBE
 correlation: LDA (PW) + PBE
 spherical integration : Lebedev's spherical grid
 spherical gridsize    :           6
    i.e. gridpoints    :         974
 value for diffuse not defined
 radial integration    : Chebyshev 2nd kind (scaling 3)
 radial gridsize       :          10
 integration cells     :          72
 partition function    : becke
 partition sharpness   :           3
  

 biggest AO integral is expected to be     3.593180334
  
           ------------------------
               RI-J - INFORMATION
           ------------------------
 Contributions to RI integral batches: 
  neglected integral batches:      118390
  direct contribution:             211000
  memory contribution:       39121
 Memory core needed for (P|Q) and Cholesky     44 MByte
 Memory core minimum needed except of (P|Q)     5 MByte
 Total minimum memory core needed (sum)        48 MByte
  
 ****************************************
 Memory allocated for RI-J  2509 MByte
 ****************************************
                                            

          ------------------------
          nuclear repulsion energy  :   4512.28300354    
          ------------------------

 
          -----------------
          -S,T+V- integrals
          -----------------

 1e-integrals will be neglected if expon. factor < 0.109214E-14
 
   Difference densities algorithm switched on.
   The maximal number of linear combinations of
   difference densities is          20 .

 automatic virtual orbital shift switched on 
      shift if e(lumo)-e(homo) < 0.10000000    


 DIIS switched on: error vector is FDS-SDF
 Max. Iterations for DIIS is     :   4
 DIIS matrix (see manual) 
    Scaling factor of diagonals  :  1.200
    threshold for scaling factor :  0.000

 scf convergence criterion : increment of total energy < .1000000D-08
                  and increment of one-electron energy < .1000000D-05


 <geterg> : there is no data group $energy 

  MOs are in ASCII format !


 reading orbital data $scfmo  from file mos . 

 orbital characterization : expanded
 
 mo provided and orthogonalized by Cholesky decomposition

 DSCF restart information will be dumped onto file mos


 Starting SCF iterations

          Overall gridpoints after grid construction =       2279422

 ITERATION  ENERGY          1e-ENERGY        2e-ENERGY     RMS[dD(SAO)]   TOL
   1  -1612.1663441461    -11095.961888     4971.5125405    0.000D+00 0.109D-13
                            Exc = -231.585858556     Coul =  5203.09839908    
                              N = 281.99999939    
                            current damping = 0.700
 
          max. resid. norm for Fia-block=  2.618D-01 for orbital     25a         
          max. resid. fock norm         =  5.217D+00 for orbital   2201a         

 ITERATION  ENERGY          1e-ENERGY        2e-ENERGY     RMS[dD(SAO)]   TOL
   2  -1615.8960914449    -11148.420160     5020.2410655    0.318D-01 0.102D-13
                            Exc = -235.356343792     Coul =  5255.59740926    
                              N = 282.00000072    
                            current damping = 0.650
 
          Norm of current diis error:  7.8696    
          max. resid. norm for Fia-block=  1.272D-01 for orbital     46a         
          max. resid. fock norm         =  1.474D-01 for orbital    162a         

 ITERATION  ENERGY          1e-ENERGY        2e-ENERGY     RMS[dD(SAO)]   TOL
   3  -1616.6539783714    -11155.886368     5026.9493857    0.866D-02 0.555D-14
                            Exc = -236.292697109     Coul =  5263.24208278    
                              N = 282.00000000    
                            current damping = 0.550
 
          Norm of current diis error:  4.1899    
          max. resid. norm for Fia-block=  6.397D-02 for orbital     46a         
          max. resid. fock norm         =  7.183D-02 for orbital     46a         

 ITERATION  ENERGY          1e-ENERGY        2e-ENERGY     RMS[dD(SAO)]   TOL
   4  -1616.8997910211    -11167.258221     5038.0754263    0.566D-02 0.457D-14
                            Exc = -236.976195929     Coul =  5275.05162224    
                              N = 281.99999935    
                            current damping = 0.450
 
          Norm of current diis error:  1.6505    
          max. resid. norm for Fia-block=  2.514D-02 for orbital     47a         
          max. resid. fock norm         =  3.443D-02 for orbital     48a         

 ITERATION  ENERGY          1e-ENERGY        2e-ENERGY     RMS[dD(SAO)]   TOL
   5  -1616.9356532891    -11167.009940     5037.7912829    0.339D-02 0.414D-14
                            Exc = -237.216538104     Coul =  5275.00782097    
                              N = 281.99999964    
                            current damping = 0.500
 
          Norm of current diis error:  1.0534    
          max. resid. norm for Fia-block=  1.302D-02 for orbital    137a         
          max. resid. fock norm         =  2.066D-02 for orbital   2586a         
          mo-orthogonalization: Cholesky decomposition

 ITERATION  ENERGY          1e-ENERGY        2e-ENERGY     RMS[dD(SAO)]   TOL
   6  -1616.9523632685    -11170.276422     5041.0410554    0.132D-02 0.396D-14
                            Exc = -237.339537023     Coul =  5278.38059246    
                              N = 281.99999997    
                            current damping = 0.550
 
          Norm of current diis error: 0.36990    
          max. resid. norm for Fia-block=  5.216D-03 for orbital    137a         
          max. resid. fock norm         =  1.074D-02 for orbital   2586a         

 ITERATION  ENERGY          1e-ENERGY        2e-ENERGY     RMS[dD(SAO)]   TOL
   7  -1616.9540065737    -11170.234304     5040.9972934    0.487D-03 0.388D-14
                            Exc = -237.356163580     Coul =  5278.35345697    
                              N = 282.00000028    
                            current damping = 0.600
 
          Norm of current diis error: 0.22698    
          max. resid. norm for Fia-block=  2.258D-03 for orbital    141a         
          max. resid. fock norm         =  4.158D-03 for orbital   2591a         

 ITERATION  ENERGY          1e-ENERGY        2e-ENERGY     RMS[dD(SAO)]   TOL
   8  -1616.9548708063    -11170.117092     5040.8792180    0.194D-03 0.384D-14
                            Exc = -237.359811049     Coul =  5278.23902903    
                              N = 282.00000041    
                            current damping = 0.450
 
          Norm of current diis error: 0.49767E-01
          max. resid. norm for Fia-block=  8.984D-04 for orbital    140a         
          max. resid. fock norm         =  1.615D-03 for orbital   2591a         

 ITERATION  ENERGY          1e-ENERGY        2e-ENERGY     RMS[dD(SAO)]   TOL
   9  -1616.9548752281    -11170.183943     5040.9460638    0.723D-04 0.380D-14
                            Exc = -237.364966845     Coul =  5278.31103068    
                              N = 282.00000042    
                            current damping = 0.500
 
          Norm of current diis error: 0.49753E-01
          max. resid. norm for Fia-block=  5.384D-04 for orbital    140a         
          max. resid. fock norm         =  1.113D-03 for orbital   2591a         

 ITERATION  ENERGY          1e-ENERGY        2e-ENERGY     RMS[dD(SAO)]   TOL
  10  -1616.9549132111    -11170.258459     5041.0205427    0.357D-04 0.377D-14
                            Exc = -237.367735105     Coul =  5278.38827778    
                              N = 282.00000044    
                            current damping = 0.350
 
          Norm of current diis error: 0.19618E-01
          max. resid. norm for Fia-block=  2.186D-04 for orbital    137a         
          max. resid. fock norm         =  3.800D-04 for orbital   2586a         
          mo-orthogonalization: Cholesky decomposition

 ITERATION  ENERGY          1e-ENERGY        2e-ENERGY     RMS[dD(SAO)]   TOL
  11  -1616.9549189258    -11170.190968     5040.9530456    0.161D-04 0.374D-14
                            Exc = -237.365654281     Coul =  5278.31869985    
                              N = 282.00000045    
                            current damping = 0.400
 
          Norm of current diis error: 0.63889E-02
          max. resid. norm for Fia-block=  8.073D-05 for orbital    137a         
          max. resid. fock norm         =  1.495D-04 for orbital   2586a         

 ITERATION  ENERGY          1e-ENERGY        2e-ENERGY     RMS[dD(SAO)]   TOL
  12  -1616.9549194285    -11170.196987     5040.9590640    0.506D-05 0.368D-14
                            Exc = -237.365359250     Coul =  5278.32442324    
                              N = 282.00000046    
                            current damping = 0.450
 
          Norm of current diis error: 0.33677E-02
          max. resid. norm for Fia-block=  3.049D-05 for orbital    140a         
          max. resid. fock norm         =  6.392D-05 for orbital   2604a         

 ITERATION  ENERGY          1e-ENERGY        2e-ENERGY     RMS[dD(SAO)]   TOL
  13  -1616.9549196052    -11170.201721     5040.9637976    0.278D-05 0.363D-14
                            Exc = -237.365568076     Coul =  5278.32936571    
                              N = 282.00000046    
                            current damping = 0.300
 
          Norm of current diis error: 0.82612E-03
          max. resid. norm for Fia-block=  1.036D-05 for orbital    136a         
          max. resid. fock norm         =  2.208D-05 for orbital    590a         

 ITERATION  ENERGY          1e-ENERGY        2e-ENERGY     RMS[dD(SAO)]   TOL
  14  -1616.9549196149    -11170.201200     5040.9632769    0.185D-05 0.350D-14
                            Exc = -237.365644663     Coul =  5278.32892155    
                              N = 282.00000046    
                            current damping = 0.350
 
          Norm of current diis error: 0.38573E-03
          max. resid. norm for Fia-block=  3.884D-06 for orbital    140a         
          max. resid. fock norm         =  1.907D-05 for orbital    590a         

 ITERATION  ENERGY          1e-ENERGY        2e-ENERGY     RMS[dD(SAO)]   TOL
  15  -1616.9549196159    -11170.201122     5040.9631992    0.119D-05 0.337D-14
                            Exc = -237.365623932     Coul =  5278.32882311    
                              N = 282.00000046    
                            current damping = 0.200
 
          Norm of current diis error: 0.14252E-03
          max. resid. norm for Fia-block=  1.874D-06 for orbital    137a         
          max. resid. fock norm         =  1.805D-05 for orbital    590a         
          mo-orthogonalization: Cholesky decomposition

 ITERATION  ENERGY          1e-ENERGY        2e-ENERGY     RMS[dD(SAO)]   TOL
  16  -1616.9549196183    -11170.200866     5040.9629432    0.137D-05 0.319D-14
                            Exc = -237.365612069     Coul =  5278.32855528    
                              N = 282.00000046    
                            current damping = 0.050
 
          Norm of current diis error: 0.11400E-03
          max. resid. norm for Fia-block=  1.230D-06 for orbital    137a         
          max. resid. fock norm         =  1.346D-05 for orbital    428a         

 ITERATION  ENERGY          1e-ENERGY        2e-ENERGY     RMS[dD(SAO)]   TOL
  17  -1616.9549196177    -11170.201173     5040.9632499    0.154D-05 0.304D-14
                            Exc = -237.365618938     Coul =  5278.32886887    
                              N = 282.00000046    
                            current damping = 0.100
 
          Norm of current diis error: 0.60121E-04
          max. resid. norm for Fia-block=  5.616D-07 for orbital    137a         
          max. resid. fock norm         =  1.533D-05 for orbital    621a         

 ITERATION  ENERGY          1e-ENERGY        2e-ENERGY     RMS[dD(SAO)]   TOL
  18  -1616.9549196171    -11170.201091     5040.9631674    0.154D-05 0.288D-14
                            Exc = -237.365618633     Coul =  5278.32878607    
                              N = 282.00000046    
                            current damping = 0.150
 
          Norm of current diis error: 0.35540E-04
          max. resid. norm for Fia-block=  2.861D-07 for orbital    140a         
          max. resid. fock norm         =  1.926D-05 for orbital    621a         

 ITERATION  ENERGY          1e-ENERGY        2e-ENERGY     RMS[dD(SAO)]   TOL
  19  -1616.9549196169    -11170.201065     5040.9631415    0.161D-05 0.273D-14
                            Exc = -237.365617691     Coul =  5278.32875921    
                              N = 282.00000046    
                            current damping = 0.050
 
          Norm of current diis error: 0.71354E-05
          max. resid. norm for Fia-block=  1.090D-07 for orbital     55a         
          max. resid. fock norm         =  5.568D-05 for orbital    451a         

 ITERATION  ENERGY          1e-ENERGY        2e-ENERGY     RMS[dD(SAO)]   TOL
  20  -1616.9549196169    -11170.201067     5040.9631434    0.489D-05 0.233D-14
                            Exc = -237.365617520     Coul =  5278.32876091    
                              N = 282.00000046    
                            current damping = 0.100
 
          Norm of current diis error: 0.49628E-05
          max. resid. norm for Fia-block=  2.054D-07 for orbital     72a         
          max. resid. fock norm         =  9.121D-05 for orbital    428a         
          mo-orthogonalization: Cholesky decomposition

 ITERATION  ENERGY          1e-ENERGY        2e-ENERGY     RMS[dD(SAO)]   TOL
  21  -1616.9549196172    -11170.201062     5040.9631386    0.895D-05 0.194D-14
                            Exc = -237.365617632     Coul =  5278.32875619    
                              N = 282.00000046    
                            current damping = 0.150
 
          Norm of current diis error: 0.58868E-05
          max. resid. norm for Fia-block=  2.065D-07 for orbital     72a         
          max. resid. fock norm         =  8.075D-05 for orbital    590a         

 ITERATION  ENERGY          1e-ENERGY        2e-ENERGY     RMS[dD(SAO)]   TOL
  22  -1616.9549196162    -11170.201061     5040.9631382    0.948D-05 0.109D-13
                            Exc = -237.365617544     Coul =  5278.32875570    
                              N = 282.00000046    
                            current damping = 0.050
 
          Norm of current diis error: 0.92701E-06
          max. resid. norm for Fia-block=  2.913D-07 for orbital     50a         
          max. resid. fock norm         =  1.253D-04 for orbital    451a         

 ITERATION  ENERGY          1e-ENERGY        2e-ENERGY     RMS[dD(SAO)]   TOL
  23  -1616.9549196174    -11170.201066     5040.9631427    0.118D-04 0.691D-14
                            Exc = -237.365617651     Coul =  5278.32876030    
                              N = 282.00000046    
                            current damping = 0.100
 
          Norm of current diis error: 0.91871E-06
          max. resid. norm for Fia-block=  2.354D-07 for orbital     50a         
          max. resid. fock norm         =  1.015D-04 for orbital    293a         

 ITERATION  ENERGY          1e-ENERGY        2e-ENERGY     RMS[dD(SAO)]   TOL
  24  -1616.9549196156    -11170.201064     5040.9631404    0.980D-05 0.484D-14
                            Exc = -237.365617595     Coul =  5278.32875796    
                              N = 282.00000046    
                            current damping = 0.150
 
          Norm of current diis error: 0.11400E-06
          max. resid. norm for Fia-block=  1.539D-07 for orbital     50a         
          max. resid. fock norm         =  6.826D-05 for orbital    479a         

 ITERATION  ENERGY          1e-ENERGY        2e-ENERGY     RMS[dD(SAO)]   TOL
  25  -1616.9549196153    -11170.201063     5040.9631403    0.687D-05 0.387D-14
                            Exc = -237.365617592     Coul =  5278.32875793    
                              N = 282.00000046    
                            current damping = 0.050
 
          Norm of current diis error: 0.10928E-06
          max. resid. norm for Fia-block=  1.052D-07 for orbital     50a         
          max. resid. fock norm         =  4.647D-05 for orbital    479a         
          mo-orthogonalization: Cholesky decomposition

 ITERATION  ENERGY          1e-ENERGY        2e-ENERGY     RMS[dD(SAO)]   TOL
  26  -1616.9549196176    -11170.201064     5040.9631405    0.395D-05 0.345D-14
                            Exc = -237.365617599     Coul =  5278.32875806    
                              N = 282.00000046    
                            current damping = 0.100
 
          Norm of current diis error: 0.27573E-07
          max. resid. norm for Fia-block=  7.668D-08 for orbital     50a         
          max. resid. fock norm         =  3.439D-05 for orbital    386a         

 ENERGY & DENSITY CONVERGED !


 ITERATION  ENERGY          1e-ENERGY        2e-ENERGY     RMS[dD(SAO)]   TOL
  27  -1616.9549196174    -11170.201064     5040.9631404    0.277D-05 0.318D-14
                            Exc = -237.365617599     Coul =  5278.32875804    
                              N = 282.00000046    
                            current damping = 0.150
 
          Norm of current diis error: 0.24732E-07
          max. resid. norm for Fia-block=  4.926D-08 for orbital    103a         
          max. resid. fock norm         =  2.615D-05 for orbital    378a         

 End of SCF iterations

   convergence criteria satisfied after   27 iterations


                  ------------------------------------------ 
                 |  total energy      =  -1616.95491961741  |
                  ------------------------------------------ 
                 :  kinetic energy    =   1607.49871097077  :
                 :  potential energy  =  -3224.45363058818  :
                 :  virial theorem    =      1.99415184151  :
                 :  wavefunction norm =      1.00000000000  :
                  .......................................... 


 <geterg> : there is no data group $energy 


 <skperg> : $end is missing 


 orbitals $scfmo  will be written to file mos

    irrep                137a        138a        139a        140a        141a   
 eigenvalues H         -0.21434    -0.21121    -0.20242    -0.19222    -0.17832
            eV          -5.8325     -5.7473     -5.5082     -5.2306     -4.8523
 occupation              2.0000      2.0000      2.0000      2.0000      2.0000 

    irrep                142a        143a        144a        145a        146a   
 eigenvalues H         -0.05223    -0.05194    -0.04798    -0.04120    -0.03298
            eV          -1.4212     -1.4134     -1.3056     -1.1212     -0.8974
 
 
 
 
 ==============================================================================
                           electrostatic moments
 ==============================================================================

 reference point for electrostatic moments:    0.00000   0.00000   0.00000

 
              nuc           elec       ->  total
 ------------------------------------------------------------------------------
                          charge      
 ------------------------------------------------------------------------------
         282.000000    -282.000000       0.000000
 
 ------------------------------------------------------------------------------
                       dipole moment  
 ------------------------------------------------------------------------------
   x       0.000000      -0.000000      -0.000000
   y       0.000000       0.000000       0.000000
   z      26.773801     -26.326690       0.447112
 
   | dipole moment | =     0.4471 a.u. =     1.1364 debye 
 
 ------------------------------------------------------------------------------
                     quadrupole moment
 ------------------------------------------------------------------------------
  xx    1251.529364   -1417.400114    -165.870750
  yy   11859.870680  -12033.271384    -173.400704
  zz    8239.932326   -8419.495996    -179.563670
  xy      -0.000000      -0.000000      -0.000000
  xz       0.000000      -0.000000      -0.000000
  yz      -0.000000      -0.000000      -0.000000
 
     1/3  trace=    -172.945041
     anisotropy=      11.878098
 
 ==============================================================================
 
 


    ------------------------------------------------------------------------
         total  cpu-time : 12 hours 38 minutes and 50 seconds
         total wall-time : 12 hours 38 minutes and 19 seconds
    ------------------------------------------------------------------------


   ****  ridft : all done  ****


    2015-12-22 10:59:25.514 

