=================================== SLURM JOB ===================================
Thu Aug 27 19:39:44 PDT 2015

The job will be started on the following node(s):
c-8-252

Slurm User:         magee
Run Directory:      /work/magee/793278
Job ID:             793278
Job Name:           _comp2a_fragA_rpa.pbe.def2-tzvp
Partition:          mf_nes2.8
Number of nodes:    1
Submitted From:     gplogin1.local:/data12/cmf/magee/RPA_Benchmarking/matt_calcs/S12L/frags/comp2a/fragA/rpa.pbe.def2-tzvp
=================================== SLURM JOB ===================================

--- SLURM job-script output ---
 operating system is UNIX !
 hostname is         c-8-252.local

 ridft (c-8-252.local) : TURBOMOLE V7.0( ) 6 Jul 2015 at 18:30:05
 Copyright (C) 2015 TURBOMOLE GmbH, Karlsruhe


    2015-08-27 19:39:44.786 



                                  r i d f t

                        DFT program with RI approximation 
                                for coulomb part 




                                                 
                                 References:     
                                                 
          TURBOMOLE:                             
              R. Ahlrichs, M. Baer, M. Haeser, H. Horn, and
              C. Koelmel
              Electronic structure calculations on workstation
              computers: the program system TURBOMOLE
              Chem. Phys. Lett. 162: 165 (1989)
          Density Functional:                              
              O. Treutler and R. Ahlrichs                      
              Efficient Molecular Numerical Integration Schemes
              J. Chem. Phys. 102: 346 (1995)                   
          Parallel Version:                                
              Performance of parallel TURBOMOLE for Density    
              Functional Calculations                          
              M. v. Arnim and R. Ahlrichs                      
              J. Comp. Chem. 19: 1746 (1998)                   
          RI-J Method:                                     
              Auxiliary Basis Sets to approximate Coulomb      
              Potentials                                       
              Chem. Phys. Lett. 240: 283 (1995)                
              K. Eichkorn, O. Treutler, H. Oehm, M. Haeser     
              and R. Ahlrichs                                  
              Chem. Phys. Lett. 242: 652 (1995)                
                                                           
              Auxiliary Basis Sets for Main Row Atoms and their
              Use to approximate Coulomb Potentials            
              K. Eichkorn, F. Weigend, O. Treutler and         
              R. Ahlrichs                                      
              Theo. Chem. Acc. 97: 119 (1997)                   
                                                           
              Accurate Coulomb-fitting basis sets for H to Rn 
              F. Weigend                                        
              Phys. Chem. Chem. Phys. 8: 1057 (2006)            
                                                           
          Multipole accelerated RI-J (MARI-J):             
              Fast evaluation of the Coulomb potential for     
              electron densities using multipole accelerated   
              resolution of identity approximation             
              M. Sierka, A. Hogekamp and R. Ahlrichs           
              J. Chem. Phys. 118: 9136 (2003)                  
          RI-JK Method:                                     
              A fully direct RI-HF algorithm: Implementation,
              optimised auxiliary basis sets, demonstration of
              accuracy and efficiency                         
              F. Weigend                                      
              Phys. Chem. Chem. Phys. 4: 4285 (2002)           
          Two-component HF and DFT with spin-orbit coupling:  
              Self-consistent treatment of spin-orbit         
              interactions with efficient Hartree-Fock and    
              density functional methods                      
              M. K. Armbruster, F. Weigend, C. van Wüllen and 
              W. Klopper                                      
              Phys. Chem. Chem. Phys. 10: 1748 (2008)         
          Relativistic all-electron 2c calculations           
              An efficient implementation of two-component    
              relativistic exact-decoupling methods for large 
              molecules                                       
              D. Peng, N. Middendorf, F. Weigend, M. Reiher   
              J. Chem. Phys. 138, 184105 (2013)               
                                         


 


              +--------------------------------------------------+
              |      general information about current run       |
              +--------------------------------------------------+

 
 PBE functional
 exchange:    LDA + PBE
 correlation: LDA (PW) + PBE
 A DFT calculation using the RI-J approximation will be carried out.
 Allocatable memory for RI due to $ricore (MB):        3000


              +--------------------------------------------------+
              | Atomic coordinate, charge and isotop information |
              +--------------------------------------------------+

                    atomic coordinates            atom    charge  isotop
          1.32806431   -2.24208101    6.34843055    c      6.000     0
          2.70844763    0.00000000    6.31729274    c      6.000     0
          1.32806431    2.24208101    6.34843055    c      6.000     0
         -1.32806431    2.24208101    6.34843055    c      6.000     0
         -2.70844763    0.00000000    6.31729274    c      6.000     0
         -1.32806431   -2.24208101    6.34843055    c      6.000     0
          2.15253009    5.01424302    6.35308105    c      6.000     0
          1.32834539    6.10776389    3.80593775    c      6.000     0
         -1.32834539    6.10776389    3.80593775    c      6.000     0
         -2.15253009    5.01424302    6.35308105    c      6.000     0
          2.70851858    6.96044202    1.73275172    c      6.000     0
          1.32795309    7.87035738   -0.31689469    c      6.000     0
         -1.32795309    7.87035738   -0.31689469    c      6.000     0
         -2.70851858    6.96044202    1.73275172    c      6.000     0
          0.00000000    6.12402693    8.04031204    c      6.000     0
          2.15253009   -5.01424302    6.35308105    c      6.000     0
         -2.15253009   -5.01424302    6.35308105    c      6.000     0
         -1.32834539   -6.10776389    3.80593775    c      6.000     0
          1.32834539   -6.10776389    3.80593775    c      6.000     0
         -2.70851858   -6.96044202    1.73275172    c      6.000     0
         -1.32795309   -7.87035738   -0.31689469    c      6.000     0
          1.32795309   -7.87035738   -0.31689469    c      6.000     0
          2.70851858   -6.96044202    1.73275172    c      6.000     0
          0.00000000   -6.12402693    8.04031204    c      6.000     0
          2.15477886   -8.93626657   -2.87481673    c      6.000     0
          1.32961275   -6.99043012   -4.84645710    c      6.000     0
         -1.32961275   -6.99043012   -4.84645710    c      6.000     0
         -2.15477886   -8.93626657   -2.87481673    c      6.000     0
          2.67470496   -5.37441161   -6.40503330    c      6.000     0
          1.31677288   -3.75153361   -8.00542845    c      6.000     0
         -1.31677288   -3.75153361   -8.00542845    c      6.000     0
         -2.67470496   -5.37441161   -6.40503330    c      6.000     0
          0.00000000  -10.91544546   -3.26336622    c      6.000     0
         -2.15477886    8.93626657   -2.87481673    c      6.000     0
         -1.32961275    6.99043012   -4.84645710    c      6.000     0
          1.32961275    6.99043012   -4.84645710    c      6.000     0
          2.15477886    8.93626657   -2.87481673    c      6.000     0
         -2.67470496    5.37441161   -6.40503330    c      6.000     0
         -1.31677288    3.75153361   -8.00542845    c      6.000     0
          1.31677288    3.75153361   -8.00542845    c      6.000     0
          2.67470496    5.37441161   -6.40503330    c      6.000     0
          0.00000000   10.91544546   -3.26336622    c      6.000     0
          4.76401118    0.00000000    6.31253851    h      1.000     0
         -4.76401118    0.00000000    6.31253851    h      1.000     0
          4.10202021    5.38285394    6.91332080    h      1.000     0
         -4.10202021    5.38285394    6.91332080    h      1.000     0
          4.76399407    6.95171137    1.72867501    h      1.000     0
         -4.76399407    6.95171137    1.72867501    h      1.000     0
          0.00000000    5.34317069    9.95578785    h      1.000     0
          0.00000000    8.19220932    8.08192626    h      1.000     0
          4.10202021   -5.38285394    6.91332080    h      1.000     0
         -4.10202021   -5.38285394    6.91332080    h      1.000     0
         -4.76399407   -6.95171137    1.72867501    h      1.000     0
          4.76399407   -6.95171137    1.72867501    h      1.000     0
          0.00000000   -5.34317069    9.95578785    h      1.000     0
          0.00000000   -8.19220932    8.08192626    h      1.000     0
          4.10387934   -9.59505171   -3.00191777    h      1.000     0
         -4.10387934   -9.59505171   -3.00191777    h      1.000     0
          4.72914806   -5.35846141   -6.40861026    h      1.000     0
          2.33198939   -2.48127973   -9.25759256    h      1.000     0
         -2.33198939   -2.48127973   -9.25759256    h      1.000     0
         -4.72914806   -5.35846141   -6.40861026    h      1.000     0
          0.00000000  -12.39110662   -1.81451860    h      1.000     0
          0.00000000  -11.73911387   -5.16086456    h      1.000     0
         -4.10387934    9.59505171   -3.00191777    h      1.000     0
          4.10387934    9.59505171   -3.00191777    h      1.000     0
         -4.72914806    5.35846141   -6.40861026    h      1.000     0
         -2.33198939    2.48127973   -9.25759256    h      1.000     0
          2.33198939    2.48127973   -9.25759256    h      1.000     0
          4.72914806    5.35846141   -6.40861026    h      1.000     0
          0.00000000   12.39110662   -1.81451860    h      1.000     0
          0.00000000   11.73911387   -5.16086456    h      1.000     0
 
       center of nuclear mass  :    0.00000000    0.00000000    0.11018997
       center of nuclear charge:    0.00000000   -0.00000000    0.09494256

              +--------------------------------------------------+
              |               basis set information              |
              +--------------------------------------------------+

              we will work with the 1s 3p 5d 7f 9g ... basis set
              ...i.e. with spherical basis functions...

   type   atoms  prim   cont   basis
   ---------------------------------------------------------------------------
    c       42     46     31   def2-TZVP   [5s3p2d1f|11s6p2d1f]
    h       30      8      6   def2-TZVP   [3s1p|5s1p]
   ---------------------------------------------------------------------------
   total:   72   2172   1482
   ---------------------------------------------------------------------------

   total number of primitive shells          :   26
   total number of contracted shells         :  582
   total number of cartesian basis functions : 1692
   total number of SCF-basis functions       : 1482


 integral neglect threshold       :  0.20E-13
 integral storage threshold THIZE :  0.10E-04
 integral storage threshold THIME :         5

 RI-J AUXILIARY BASIS SET information:

              we will work with the 1s 3p 5d 7f 9g ... basis set
              ...i.e. with spherical basis functions...

   type   atoms  prim   cont   basis
   ---------------------------------------------------------------------------
    c       42     70     49   def2-TZVP   [6s4p3d1f1g|12s5p4d2f1g]
    h       30     16     11   def2-TZVP   [3s1p1d|5s2p1d]
   ---------------------------------------------------------------------------
   total:   72   3420   2388
   ---------------------------------------------------------------------------

   total number of primitive shells          :   32
   total number of contracted shells         :  780
   total number of cartesian basis functions : 2922
   total number of SCF-basis functions       : 2388


 symmetry group of the molecule :   c1 

 the group has the following generators :
   c1(z)

    1 symmetry operations found

 there are 1 real representations :   a   

 maximum number of shells which are related by symmetry :  1


    mo occupation :
   irrep   mo's   occupied
    a     1482      141
 
 number of basis functions   :         1482
 number of occupied orbitals :          141
 
  
           ------------------
           density functional
           ------------------
 PBE functional
 exchange:    LDA + PBE
 correlation: LDA (PW) + PBE
 iterations will be done with small grid
  
 spherical integration : Lebedev's spherical grid
 spherical gridsize    :           5
    i.e. gridpoints    :         590
 value for diffuse not defined
 radial integration    : Chebyshev 2nd kind (scaling 3)
 radial gridsize       :           8
 integration cells     :          72
 partition function    : becke
 partition sharpness   :           3
  

 biggest AO integral is expected to be     5.725698708
  
           ------------------------
               RI-J - INFORMATION
           ------------------------
 Contributions to RI integral batches: 
  neglected integral batches:       80983
  direct contribution:              56121
  memory contribution:       32549
 Memory core needed for (P|Q) and Cholesky     44 MByte
 Memory core minimum needed except of (P|Q)     3 MByte
 Total minimum memory core needed (sum)        47 MByte
  
 ****************************************
 Memory allocated for RI-J  2330 MByte
 ****************************************
                                            

          ------------------------
          nuclear repulsion energy  :   4512.28300354    
          ------------------------

 
          -----------------
          -S,T+V- integrals
          -----------------

 1e-integrals will be neglected if expon. factor < 0.197515E-14
 
   Difference densities algorithm switched on.
   The maximal number of linear combinations of
   difference densities is          20 .

 automatic virtual orbital shift switched on 
      shift if e(lumo)-e(homo) < 0.10000000    


 DIIS switched on: error vector is FDS-SDF
 Max. Iterations for DIIS is     :   4
 DIIS matrix (see manual) 
    Scaling factor of diagonals  :  1.200
    threshold for scaling factor :  0.000

 scf convergence criterion : increment of total energy < .1000000D-08
                  and increment of one-electron energy < .1000000D-05


 <geterg> : there is no data group $energy 

  MOs are in ASCII format !


 reading orbital data $scfmo  from file mos . 

 orbital characterization : expanded
 
 mo provided and orthogonalized by Cholesky decomposition

 DSCF restart information will be dumped onto file mos


 Starting SCF iterations

          Overall gridpoints after grid construction =        348204

 ITERATION  ENERGY          1e-ENERGY        2e-ENERGY     NORM[dD(SAO)]  TOL
   1  -1612.2582051170    -11096.264033     4971.7228240    0.000D+00 0.197D-13
                            Exc = -231.627126288     Coul =  5203.34995030    
                              N = 282.00102388    
                            current damping = 0.700
 
          max. resid. norm for Fia-block=  2.553D-01 for orbital     46a         
          max. resid. fock norm         =  5.517D+00 for orbital   1110a         

 ITERATION  ENERGY          1e-ENERGY        2e-ENERGY     NORM[dD(SAO)]  TOL
   2  -1615.9317109491    -11148.537160     5020.3224460    0.652D+01 0.190D-13
                            Exc = -235.430844083     Coul =  5255.75329010    
                              N = 282.00088835    
                            current damping = 0.650
 
          Norm of current diis error:  5.3157    
          max. resid. norm for Fia-block=  1.271D-01 for orbital     46a         
          max. resid. fock norm         =  1.476D-01 for orbital    213a         

 ITERATION  ENERGY          1e-ENERGY        2e-ENERGY     NORM[dD(SAO)]  TOL
   3  -1616.6777796922    -11155.960509     5026.9997257    0.285D+01 0.104D-13
                            Exc = -236.395203342     Coul =  5263.39492905    
                              N = 282.00081474    
                            current damping = 0.550
 
          Norm of current diis error:  2.7236    
          max. resid. norm for Fia-block=  6.412D-02 for orbital     46a         
          max. resid. fock norm         =  7.209D-02 for orbital     46a         

 ITERATION  ENERGY          1e-ENERGY        2e-ENERGY     NORM[dD(SAO)]  TOL
   4  -1616.9226966069    -11167.882501     5038.6768007    0.110D+01 0.883D-14
                            Exc = -237.116096286     Coul =  5275.79289698    
                              N = 282.00077489    
                            current damping = 0.450
 
          Norm of current diis error:  1.0627    
          max. resid. norm for Fia-block=  2.494D-02 for orbital     47a         
          max. resid. fock norm         =  3.439D-02 for orbital     48a         

 ITERATION  ENERGY          1e-ENERGY        2e-ENERGY     NORM[dD(SAO)]  TOL
   5  -1616.9575645762    -11167.466342     5038.2257740    0.572D+00 0.796D-14
                            Exc = -237.347643057     Coul =  5275.57341706    
                              N = 282.00076478    
                            current damping = 0.500
 
          Norm of current diis error: 0.66473    
          max. resid. norm for Fia-block=  1.273D-02 for orbital    137a         
          max. resid. fock norm         =  2.001D-02 for orbital   1442a         
          mo-orthogonalization: Cholesky decomposition

 ITERATION  ENERGY          1e-ENERGY        2e-ENERGY     NORM[dD(SAO)]  TOL
   6  -1616.9737490843    -11170.664641     5041.4078884    0.221D+00 0.759D-14
                            Exc = -237.468781189     Coul =  5278.87666962    
                              N = 282.00074877    
                            current damping = 0.550
 
          Norm of current diis error: 0.23069    
          max. resid. norm for Fia-block=  5.098D-03 for orbital    137a         
          max. resid. fock norm         =  1.082D-02 for orbital   1441a         

 ITERATION  ENERGY          1e-ENERGY        2e-ENERGY     NORM[dD(SAO)]  TOL
   7  -1616.9752532975    -11170.705407     5041.4471500    0.102D+00 0.739D-14
                            Exc = -237.488325473     Coul =  5278.93547552    
                              N = 282.00075174    
                            current damping = 0.400
 
          Norm of current diis error: 0.14527    
          max. resid. norm for Fia-block=  2.203D-03 for orbital    141a         
          max. resid. fock norm         =  4.387D-03 for orbital   1476a         

 ITERATION  ENERGY          1e-ENERGY        2e-ENERGY     NORM[dD(SAO)]  TOL
   8  -1616.9760867760    -11170.596074     5041.3369834    0.335D-01 0.727D-14
                            Exc = -237.492890827     Coul =  5278.82987424    
                              N = 282.00074975    
                            current damping = 0.450
 
          Norm of current diis error: 0.36384E-01
          max. resid. norm for Fia-block=  1.035D-03 for orbital    140a         
          max. resid. fock norm         =  2.132D-03 for orbital   1476a         

 ITERATION  ENERGY          1e-ENERGY        2e-ENERGY     NORM[dD(SAO)]  TOL
   9  -1616.9760997130    -11170.642763     5041.3836596    0.156D-01 0.724D-14
                            Exc = -237.496023923     Coul =  5278.87968353    
                              N = 282.00074887    
                            current damping = 0.500
 
          Norm of current diis error: 0.32466E-01
          max. resid. norm for Fia-block=  5.079D-04 for orbital    140a         
          max. resid. fock norm         =  1.098D-03 for orbital   1476a         

 ITERATION  ENERGY          1e-ENERGY        2e-ENERGY     NORM[dD(SAO)]  TOL
  10  -1616.9761386628    -11170.716229     5041.4570865    0.446D-02 0.719D-14
                            Exc = -237.498637701     Coul =  5278.95572420    
                              N = 282.00074892    
                            current damping = 0.350
 
          Norm of current diis error: 0.12422E-01
          max. resid. norm for Fia-block=  2.243D-04 for orbital    137a         
          max. resid. fock norm         =  4.380D-04 for orbital   1442a         
          mo-orthogonalization: Cholesky decomposition

 ITERATION  ENERGY          1e-ENERGY        2e-ENERGY     NORM[dD(SAO)]  TOL
  11  -1616.9761437566    -11170.657193     5041.3980455    0.108D-02 0.714D-14
                            Exc = -237.496994388     Coul =  5278.89503986    
                              N = 282.00074913    
                            current damping = 0.400
 
          Norm of current diis error: 0.52624E-02
          max. resid. norm for Fia-block=  1.021D-04 for orbital    137a         
          max. resid. fock norm         =  1.935D-04 for orbital   1441a         

 ITERATION  ENERGY          1e-ENERGY        2e-ENERGY     NORM[dD(SAO)]  TOL
  12  -1616.9761446800    -11170.666172     5041.4070235    0.529D-03 0.703D-14
                            Exc = -237.496887750     Coul =  5278.90391128    
                              N = 282.00074904    
                            current damping = 0.450
 
          Norm of current diis error: 0.23684E-02
          max. resid. norm for Fia-block=  2.861D-05 for orbital    135a         
          max. resid. fock norm         =  7.008D-05 for orbital   1479a         

 ITERATION  ENERGY          1e-ENERGY        2e-ENERGY     NORM[dD(SAO)]  TOL
  13  -1616.9761449070    -11170.668414     5041.4092658    0.135D-03 0.696D-14
                            Exc = -237.496974607     Coul =  5278.90624042    
                              N = 282.00074906    
                            current damping = 0.300
 
          Norm of current diis error: 0.21324E-03
          max. resid. norm for Fia-block=  5.029D-06 for orbital    121a         
          max. resid. fock norm         =  1.301D-05 for orbital   1447a         

 ITERATION  ENERGY          1e-ENERGY        2e-ENERGY     NORM[dD(SAO)]  TOL
  14  -1616.9761449081    -11170.668266     5041.4091172    0.795D-04 0.691D-14
                            Exc = -237.497000998     Coul =  5278.90611816    
                              N = 282.00074906    
                            current damping = 0.350
 
          Norm of current diis error: 0.13502E-03
          max. resid. norm for Fia-block=  2.268D-06 for orbital    121a         
          max. resid. fock norm         =  5.951D-06 for orbital   1447a         

 ITERATION  ENERGY          1e-ENERGY        2e-ENERGY     NORM[dD(SAO)]  TOL
  15  -1616.9761449089    -11170.668099     5041.4089503    0.250D-04 0.689D-14
                            Exc = -237.497001904     Coul =  5278.90595219    
                              N = 282.00074906    
                            current damping = 0.200
 
          Norm of current diis error: 0.34500E-04
          max. resid. norm for Fia-block=  5.526D-07 for orbital    135a         
          max. resid. fock norm         =  7.720D-07 for orbital    136a         
          mo-orthogonalization: Cholesky decomposition

 ITERATION  ENERGY          1e-ENERGY        2e-ENERGY     NORM[dD(SAO)]  TOL
  16  -1616.9761449089    -11170.668260     5041.4091116    0.127D-04 0.683D-14
                            Exc = -237.496999890     Coul =  5278.90611154    
                              N = 282.00074906    
                            current damping = 0.250
 
          Norm of current diis error: 0.18866E-04
          max. resid. norm for Fia-block=  2.929D-07 for orbital    141a         
          max. resid. fock norm         =  5.567D-07 for orbital   1476a         

 ITERATION  ENERGY          1e-ENERGY        2e-ENERGY     NORM[dD(SAO)]  TOL
  17  -1616.9761449088    -11170.668198     5041.4090499    0.316D-05 0.680D-14
                            Exc = -237.496998620     Coul =  5278.90604855    
                              N = 282.00074906    
                            current damping = 0.300
 
          Norm of current diis error: 0.73825E-05
          max. resid. norm for Fia-block=  1.298D-07 for orbital    140a         
          max. resid. fock norm         =  2.837D-07 for orbital   1476a         

 ITERATION  ENERGY          1e-ENERGY        2e-ENERGY     NORM[dD(SAO)]  TOL
  18  -1616.9761449088    -11170.668190     5041.4090411    0.502D-06 0.675D-14
                            Exc = -237.496998574     Coul =  5278.90603972    
                              N = 282.00074906    
                            current damping = 0.150
 
          Norm of current diis error: 0.32842E-05
          max. resid. norm for Fia-block=  5.227D-08 for orbital    140a         
          max. resid. fock norm         =  1.002D-07 for orbital   1476a         

 ITERATION  ENERGY          1e-ENERGY        2e-ENERGY     NORM[dD(SAO)]  TOL
  19  -1616.9761449089    -11170.668195     5041.4090465    0.178D-06 0.670D-14
                            Exc = -237.496998838     Coul =  5278.90604532    
                              N = 282.00074906    
                            current damping = 0.200
 
          Norm of current diis error: 0.16771E-05
          max. resid. norm for Fia-block=  1.944D-08 for orbital    135a         
          max. resid. fock norm         =  5.465D-08 for orbital   1447a         

 ENERGY CONVERGED !

          Overall gridpoints after grid construction =       1101932

 ITERATION  ENERGY          1e-ENERGY        2e-ENERGY     NORM[dD(SAO)]  TOL
  20  -1616.9759180367    -11170.668197     5041.4092758    0.110D-06 0.662D-14
                            Exc = -237.496772028     Coul =  5278.90604779    
                              N = 282.00007376    
                            current damping = 0.050
 
          Norm of current diis error: 0.35531E-06
          max. resid. norm for Fia-block=  8.073D-09 for orbital    141a         
          max. resid. fock norm         =  4.941D-08 for orbital    454a         

 End of SCF iterations

   convergence criteria satisfied after   20 iterations


                  ------------------------------------------ 
                 |  total energy      =  -1616.97591803674  |
                  ------------------------------------------ 
                 :  kinetic energy    =   1609.32307571171  :
                 :  potential energy  =  -3226.29899374845  :
                 :  virial theorem    =      1.99526718844  :
                 :  wavefunction norm =      1.00000000000  :
                  .......................................... 


 <geterg> : there is no data group $energy 


 <skperg> : $end is missing 


 orbitals $scfmo  will be written to file mos

    irrep                137a        138a        139a        140a        141a   
 eigenvalues H         -0.21338    -0.21033    -0.20160    -0.19138    -0.17753
            eV          -5.8064     -5.7235     -5.4857     -5.2077     -4.8309
 occupation              2.0000      2.0000      2.0000      2.0000      2.0000 

    irrep                142a        143a        144a        145a        146a   
 eigenvalues H         -0.05123    -0.04922    -0.04657    -0.03903    -0.03143
            eV          -1.3940     -1.3393     -1.2672     -1.0621     -0.8553
 
 
 
 
 ==============================================================================
                           electrostatic moments
 ==============================================================================

 reference point for electrostatic moments:    0.00000   0.00000   0.00000

 
              nuc           elec       ->  total
 ------------------------------------------------------------------------------
                          charge      
 ------------------------------------------------------------------------------
         282.000000    -282.000000      -0.000000
 
 ------------------------------------------------------------------------------
                       dipole moment  
 ------------------------------------------------------------------------------
   x       0.000000       0.000000       0.000000
   y       0.000000       0.000000       0.000000
   z      26.773801     -26.358346       0.415455
 
   | dipole moment | =     0.4155 a.u. =     1.0560 debye 
 
 ------------------------------------------------------------------------------
                     quadrupole moment
 ------------------------------------------------------------------------------
  xx    1251.529364   -1416.690446    -165.161083
  yy   11859.870680  -12032.987727    -173.117047
  zz    8239.932326   -8418.607177    -178.674851
  xy      -0.000000      -0.000000      -0.000000
  xz       0.000000       0.000000       0.000000
  yz      -0.000000       0.000000       0.000000
 
     1/3  trace=    -172.317660
     anisotropy=      11.764533
 
 ==============================================================================
 
 


    ------------------------------------------------------------------------
         total  cpu-time : 33 minutes and 55 seconds
         total wall-time : 33 minutes and 55 seconds
    ------------------------------------------------------------------------


   ****  ridft : all done  ****


    2015-08-27 20:13:39.550 

 ridft ended normally
Job Done
