 operating system is UNIX !

 ridft (c-17-7.gp.local) : TURBOMOLE V7.2 ( 21454 ) 4 Oct 2017 at 12:48:15
 Copyright (C) 2017 TURBOMOLE GmbH, Karlsruhe


    2018-04-28 11:01:48.695 



                                  r i d f t

                        DFT program with RI approximation 
                                for coulomb part 




                                                 
                                 References:     
                                                 
          TURBOMOLE:                             
              R. Ahlrichs, M. Baer, M. Haeser, H. Horn, and
              C. Koelmel
              Electronic structure calculations on workstation
              computers: the program system TURBOMOLE
              Chem. Phys. Lett. 162: 165 (1989)
          Density Functional:                              
              O. Treutler and R. Ahlrichs                      
              Efficient Molecular Numerical Integration Schemes
              J. Chem. Phys. 102: 346 (1995)                   
          Parallel Version:                                
              Performance of parallel TURBOMOLE for Density    
              Functional Calculations                          
              M. v. Arnim and R. Ahlrichs                      
              J. Comp. Chem. 19: 1746 (1998)                   
          RI-J Method:                                     
              Auxiliary Basis Sets to approximate Coulomb      
              Potentials                                       
              Chem. Phys. Lett. 240: 283 (1995)                
              K. Eichkorn, O. Treutler, H. Oehm, M. Haeser     
              and R. Ahlrichs                                  
              Chem. Phys. Lett. 242: 652 (1995)                
                                                           
              Auxiliary Basis Sets for Main Row Atoms and their
              Use to approximate Coulomb Potentials            
              K. Eichkorn, F. Weigend, O. Treutler and         
              R. Ahlrichs                                      
              Theo. Chem. Acc. 97: 119 (1997)                   
                                                           
              Accurate Coulomb-fitting basis sets for H to Rn 
              F. Weigend                                        
              Phys. Chem. Chem. Phys. 8: 1057 (2006)            
                                                           
          Multipole accelerated RI-J (MARI-J):             
              Fast evaluation of the Coulomb potential for     
              electron densities using multipole accelerated   
              resolution of identity approximation             
              M. Sierka, A. Hogekamp and R. Ahlrichs           
              J. Chem. Phys. 118: 9136 (2003)                  
          RI-JK Method:                                     
              A fully direct RI-HF algorithm: Implementation,
              optimised auxiliary basis sets, demonstration of
              accuracy and efficiency                         
              F. Weigend                                      
              Phys. Chem. Chem. Phys. 4: 4285 (2002)           
          Two-component HF and DFT with spin-orbit coupling:  
              Self-consistent treatment of spin-orbit         
              interactions with efficient Hartree-Fock and    
              density functional methods                      
              M. K. Armbruster, F. Weigend, C. van Wüllen and 
              W. Klopper                                      
              Phys. Chem. Chem. Phys. 10: 1748 (2008)         
          Relativistic all-electron 2c calculations           
              An efficient implementation of two-component    
              relativistic exact-decoupling methods for large 
              molecules                                       
              D. Peng, N. Middendorf, F. Weigend, M. Reiher   
              J. Chem. Phys. 138, 184105 (2013)               
                                         




              +--------------------------------------------------+
              |      general information about current run       |
              +--------------------------------------------------+

 

 DENSITY CONVERGENCE CHECK SWITCHED ON !
 SCF CONVERGENCE IF RMS(delta[D]) <     0.1000000000E-06

 A HF calculation using the RI-JK approximation will be carried out.
 Allocatable memory for RI due to $ricore (MB):                   500


              +--------------------------------------------------+
              | Atomic coordinate, charge and isotop information |
              +--------------------------------------------------+

                    atomic coordinates            atom    charge  isotop
         -2.47506832    2.23020976   -0.04756505    c      6.000     0
         -1.37061919    4.07263887    0.85550424    o      8.000     0
         -1.25784169    0.17962734   -0.92973485    n      7.000     0
          0.67006412    0.09722294   -0.86796863    h      1.000     0
         -2.23673094   -1.27291894   -1.64549055    h      1.000     0
         -5.32282815    2.18452086   -0.20901500    c      6.000     0
         -6.08610669    2.38585758    1.68768112    h      1.000     0
         -6.06493909    0.46985020   -1.06183728    h      1.000     0
         -5.93970806    3.81081347   -1.30181932    h      1.000     0
          5.25268621    2.01045258    0.25389839    c      6.000     0
          4.14828914    0.16982071   -0.65266176    o      8.000     0
          4.03553711    4.06032020    1.13800025    n      7.000     0
          2.10781734    4.14429544    1.07318015    h      1.000     0
          5.01446073    5.51155654    1.85632417    h      1.000     0
          8.10050195    2.05634341    0.41495046    c      6.000     0
          8.84103094    3.75643461    1.29780029    h      1.000     0
          8.86311264    1.89090726   -1.48569888    h      1.000     0
          8.71991404    0.41119526    1.47731733    h      1.000     0
 
       center of nuclear mass  :    1.38883792    2.12052659    0.10286393
       center of nuclear charge:    1.38884207    2.12052630    0.10287029

              +--------------------------------------------------+
              |               basis set information              |
              +--------------------------------------------------+

              we will work with the 1s 3p 5d 7f 9g ... basis set
              ...i.e. with spherical basis functions...

   type   atoms  prim   cont   basis
   ---------------------------------------------------------------------------
    c        4     77     57   def2-QZVP   [7s4p3d2f1g|15s8p3d2f1g]
    o        2     77     57   def2-QZVP   [7s4p3d2f1g|15s8p3d2f1g]
    n        2     77     57   def2-QZVP   [7s4p3d2f1g|15s8p3d2f1g]
    h       10     33     30   def2-QZVP   [4s3p2d1f|7s3p2d1f]
   ---------------------------------------------------------------------------
   total:   18    946    756
   ---------------------------------------------------------------------------

   total number of primitive shells          :  100
   total number of contracted shells         :  236
   total number of cartesian basis functions :  926
   total number of SCF-basis functions       :  756


 integral neglect threshold       :  0.36E-13
 integral storage threshold THIZE :  0.10E-04
 integral storage threshold THIME :         5

 RI-JK AUXILIARY BASIS SET information:

              we will work with the 1s 3p 5d 7f 9g ... basis set
              ...i.e. with spherical basis functions...

   type   atoms  prim   cont   basis
   ---------------------------------------------------------------------------
    c        4     97     75   def2-QZVP   [10s8p5d1f1g|14s10p6d2f1g]
    o        2     97     77   def2-QZVP   [10s8p4d2f1g|14s10p6d2f1g]
    n        2     97     77   def2-QZVP   [10s8p4d2f1g|14s10p6d2f1g]
    h       10     20     18   def2-QZVP   [2s2p2d|4s2p2d]
   ---------------------------------------------------------------------------
   total:   18    976    788
   ---------------------------------------------------------------------------

   total number of primitive shells          :  107
   total number of contracted shells         :  260
   total number of cartesian basis functions :  928
   total number of SCF-basis functions       :  788


 symmetry group of the molecule :   c1 

 the group has the following generators :
   c1(z)

    1 symmetry operations found

 there are 1 real representations :   a   

 maximum number of shells which are related by symmetry :  1


    mo occupation :
   irrep   mo's   occupied
    a      756       32
 
 number of basis functions   :                    756
 number of occupied orbitals :                     32
 

 biggest AO integral is expected to be     6.990327543
  
           ------------------------
               RI-JK - INFORMATION
           ------------------------
 Contributions to RI integral batches: 
  neglected integral batches:                  8210
  direct contribution:                        17713
  memory contribution:                  2043
 Memory core needed for (P|Q) and Cholesky      5 MByte
 Memory core minimum needed except of (P|Q)     1 MByte
 Total minimum memory core needed (sum)         6 MByte
  
 ****************************************
 Memory allocated for RI-J    49 MByte
 ****************************************
                                            
 total memory allocated for calculation of  (Q|P)**(-1/2) :    8 MiB

  forming (P|Q)**(-1/2) 
 eigenvalues of original matrix 
 smallest =0.1664403423051E-06  largest = 33.11784715829    
  The symmetry information takes                      1  MB

          ------------------------
          nuclear repulsion energy  :   373.661108064    
          ------------------------


         -----------------
         -S,T+V- integrals
         -----------------

 1e-integrals will be neglected if expon. factor < 0.360903E-14
 
   Difference densities algorithm switched on.
   The maximal number of linear combinations of
   difference densities is                    20 .

 DIIS switched on: error vector is FDS-SDF
 Max. Iterations for DIIS is     :   5
 DIIS matrix (see manual) 
    Scaling factor of diagonals  :  1.200
    threshold for scaling factor :  0.000

 scf convergence criterion : increment of total energy < .1000000D-08
                  and increment of one-electron energy < .1000000D-05

  MOs are in ASCII format !


 automatic virtual orbital shift switched on 
      shift if e(lumo)-e(homo) < 0.10000000    


 reading orbital data $scfmo  from file mos
 orbital characterization : scfconv=9

 DSCF restart information will be dumped onto file mos


 Starting SCF iterations

 
 BLOCKING OF MOS FOR RI-K
 
 
 occupied MOs partitioned into blocks of maximum length 32
 this requires 179 MiB core memory.
 
            MULTIPLE PASS Statistics 
 ----------------------------------------------------
  pass       irrep     lambda      batch : MO  to  MO
 ----------------------------------------------------
   1       1  ->  1    1  -> 32             1  ->  32



 ENERGY & DENSITY CONVERGED !


 ITERATION  ENERGY          1e-ENERGY        2e-ENERGY     RMS[dD(SAO)]   TOL
   1  -416.07140487155    -1310.2778751     520.54536221    0.000D+00 0.360D-13
                           RI-K = -53.9083563629     Coul =  574.453718571    
                            current damping = 0.700
 
          max. resid. norm for Fia-block=  2.598D-01 for orbital      1a         
          max. resid. fock norm         =  8.032D-01 for orbital    756a         

 End of SCF iterations

   convergence criteria satisfied after     1 iterations


                  ------------------------------------------ 
                 |  total energy      =   -416.07140487155  |
                  ------------------------------------------ 
                 :  kinetic energy    =    416.63612172304  :
                 :  potential energy  =   -832.70752659459  :
                 :  virial theorem    =      2.00135725946  :
                 :  wavefunction norm =      1.00000000000  :
                  .......................................... 


 orbitals $scfmo  will be written to file mos

    irrep                 28a         29a         30a         31a         32a   
 eigenvalues H         -0.50979    -0.40876    -0.39787    -0.44038    -0.41608
            eV         -13.8721    -11.1229    -10.8266    -11.9836    -11.3221
 occupation              2.0000      2.0000      2.0000      2.0000      2.0000 

    irrep                 33a         34a         35a         36a         37a   
 eigenvalues H          0.18212     0.19920     0.11403     0.11945     0.15218
            eV           4.9557      5.4206      3.1030      3.2503      4.1412
 
 
 
 
 ==============================================================================
                           electrostatic moments
 ==============================================================================

 reference point for electrostatic moments:    0.00000   0.00000   0.00000

 
              nuc           elec       ->  total
 ------------------------------------------------------------------------------
                          charge      
 ------------------------------------------------------------------------------
          64.000000     -64.000000      -0.000000
 
 ------------------------------------------------------------------------------
                       dipole moment  
 ------------------------------------------------------------------------------
   x      88.885893     -88.885700       0.000193
   y     135.713683    -135.714081      -0.000398
   z       6.583699      -6.583150       0.000548
 
   | dipole moment | =     0.0007 a.u. =     0.0018 debye 
 
 ------------------------------------------------------------------------------
                     quadrupole moment
 ------------------------------------------------------------------------------
  xx    1420.672587   -1447.588604     -26.916017
  yy     444.122685    -480.527485     -36.404800
  zz      45.877804     -82.735033     -36.857230
  xy     187.352050    -180.700105       6.651946
  xz      74.603220     -71.025756       3.577463
  yz      80.897315     -80.090964       0.806351
 
     1/3  trace=     -33.392682
     anisotropy=      16.359253
 
 ==============================================================================
 


    ------------------------------------------------------------------------
         total  cpu-time :  28.99 seconds
         total wall-time :  29.11 seconds
    ------------------------------------------------------------------------

   ****  ridft : all done  ****


    2018-04-28 11:02:17.796 

