 this is node-proc. number 0 running on node c-7-23.local
 the total number of node-proc. spawned is  33

 dscfserver (c-7-23.local) : TURBOMOLE V7.2 ( 21471 ) 7 Nov 2017 at 16:15:16
 Copyright (C) 2017 TURBOMOLE GmbH, Karlsruhe


    2018-03-08 23:28:50.618 

 
    0:00:50 ---- Start global counter...
    0:24:08 ---- ... finished.
 
    0:25:06 ---- Start global counter...
    0:46:45 ---- ... finished.
 
    0:47:41 ---- Start global counter...
    1:09:09 ---- ... finished.
 
    1:10:06 ---- Start global counter...
    1:30:27 ---- ... finished.
 
    1:31:23 ---- Start global counter...
    1:48:34 ---- ... finished.
 
    1:49:43 ---- Start global counter...
    2:05:39 ---- ... finished.
 
    2:06:35 ---- Start global counter...
    2:21:34 ---- ... finished.
 
    2:22:31 ---- Start global counter...
    2:36:14 ---- ... finished.
 
    2:37:10 ---- Start global counter...
    2:49:37 ---- ... finished.
 
    2:50:33 ---- Start global counter...
    3:01:44 ---- ... finished.
 
    3:02:53 ---- Start global counter...
    3:13:08 ---- ... finished.
 
    3:14:04 ---- Start global counter...
    3:22:54 ---- ... finished.
 
    3:23:51 ---- Start global counter...
    3:31:48 ---- ... finished.
 
    3:32:44 ---- Start global counter...
    3:39:46 ---- ... finished.
 
    3:40:43 ---- Start global counter...
    3:46:34 ---- ... finished.
 
    3:47:48 ---- Start global counter...
    3:53:03 ---- ... finished.
 
    3:53:53 ---- ByeBye Tag received


 ! Total wall-clock time in seconds  :    14033.4
 ! Time (sec) spent in global counter:    13044.4
 ! So-called SERIAL wall-clock time  :      989.0

  *** Regular termination of server ***
 total turnaround time of dscfserver 14034.28 sec
 cpu elapsed by dscfserver process   13053.72 sec 

   ***  dscf server : all done  ***


    2018-03-09 03:22:44.895 

