
 eiger (gplogin2.gp.local) : TURBOMOLE V7.3 ( 22118 ) 1 Jul 2018 at 20:38:15
 Copyright (C) 2018 TURBOMOLE GmbH, Karlsruhe


    2019-05-14 12:32:29.760 

                                                                                
  
Total energy =   -640.5884085380 H =    -17431.3074201 eV
 
 HOMO-LUMO Separation
   HOMO:    45.    45 a     -0.36550319 H =     -9.94585 eV
   LUMO:    46.    46 a     +0.08933125 H =     +2.43083 eV
   Gap :                    +0.45483444 H =    +12.37668 eV
 
Number of MOs=    900, Electrons=     90.00, Symmetry: c1   
 
   Nr.   Orbital    Occupation       Energy
   62.    62 a                     +0.286791 H =        +7.804 eV
   61.    61 a                     +0.280244 H =        +7.626 eV
   60.    60 a                     +0.255612 H =        +6.956 eV
   59.    59 a                     +0.251978 H =        +6.857 eV
   58.    58 a                     +0.228952 H =        +6.230 eV
   57.    57 a                     +0.222636 H =        +6.058 eV
   56.    56 a                     +0.210466 H =        +5.727 eV
   55.    55 a                     +0.196512 H =        +5.347 eV
   54.    54 a                     +0.183840 H =        +5.003 eV
   53.    53 a                     +0.177493 H =        +4.830 eV
   52.    52 a                     +0.159470 H =        +4.339 eV
   51.    51 a                     +0.154228 H =        +4.197 eV
   50.    50 a                     +0.149931 H =        +4.080 eV
   49.    49 a                     +0.137918 H =        +3.753 eV
   48.    48 a                     +0.115988 H =        +3.156 eV
   47.    47 a                     +0.109968 H =        +2.992 eV
   46.    46 a                     +0.089331 H =        +2.431 eV
   45.    45 a        2.000        -0.365503 H =        -9.946 eV
   44.    44 a        2.000        -0.444288 H =       -12.090 eV
   43.    43 a        2.000        -0.450079 H =       -12.247 eV
   42.    42 a        2.000        -0.466475 H =       -12.693 eV
   41.    41 a        2.000        -0.490321 H =       -13.342 eV
   40.    40 a        2.000        -0.495711 H =       -13.489 eV
   39.    39 a        2.000        -0.524164 H =       -14.263 eV
   38.    38 a        2.000        -0.562141 H =       -15.297 eV
   37.    37 a        2.000        -0.570771 H =       -15.531 eV
   36.    36 a        2.000        -0.571893 H =       -15.562 eV
   35.    35 a        2.000        -0.584699 H =       -15.910 eV
   34.    34 a        2.000        -0.602340 H =       -16.391 eV
   33.    33 a        2.000        -0.611144 H =       -16.630 eV
   32.    32 a        2.000        -0.653906 H =       -17.794 eV
   31.    31 a        2.000        -0.655085 H =       -17.826 eV
   30.    30 a        2.000        -0.671801 H =       -18.281 eV


    ------------------------------------------------------------------------
         total  cpu-time :   0.37 seconds
         total wall-time :   0.38 seconds
    ------------------------------------------------------------------------

   ****  eiger : all done  ****


    2019-05-14 12:32:30.128 

