
 eiger (gplogin1.local) : TURBOMOLE V7.2 ( 21285 ) 30 Jun 2017 at 11:51:10
 Copyright (C) 2017 TURBOMOLE GmbH, Karlsruhe


    2017-11-10 01:09:38.379 

                                                                                
  
 HOMO-LUMO Separation
   HOMO:   208.   208 a     -0.17763672 H =     -4.83374 eV
   LUMO:   209.   209 a     -0.11723772 H =     -3.19020 eV
   Gap :                    +0.06039900 H =     +1.64354 eV
 
Number of MOs=   4608, Electrons=    416.00, Symmetry: c1   
 
   Nr.   Orbital    Occupation       Energy
  225.   225 a                     +0.001524 H =        +0.041 eV
  224.   224 a                     -0.028421 H =        -0.773 eV
  223.   223 a                     -0.045922 H =        -1.250 eV
  222.   222 a                     -0.045922 H =        -1.250 eV
  221.   221 a                     -0.049913 H =        -1.358 eV
  220.   220 a                     -0.050005 H =        -1.361 eV
  219.   219 a                     -0.050005 H =        -1.361 eV
  218.   218 a                     -0.050309 H =        -1.369 eV
  217.   217 a                     -0.050312 H =        -1.369 eV
  216.   216 a                     -0.050719 H =        -1.380 eV
  215.   215 a                     -0.050719 H =        -1.380 eV
  214.   214 a                     -0.050913 H =        -1.385 eV
  213.   213 a                     -0.074895 H =        -2.038 eV
  212.   212 a                     -0.074896 H =        -2.038 eV
  211.   211 a                     -0.102707 H =        -2.795 eV
  210.   210 a                     -0.102707 H =        -2.795 eV
  209.   209 a                     -0.117238 H =        -3.190 eV
  208.   208 a        2.000        -0.177637 H =        -4.834 eV
  207.   207 a        2.000        -0.191045 H =        -5.199 eV
  206.   206 a        2.000        -0.191045 H =        -5.199 eV
  205.   205 a        2.000        -0.215810 H =        -5.873 eV
  204.   204 a        2.000        -0.215810 H =        -5.873 eV
  203.   202 a        2.000        -0.241301 H =        -6.566 eV
  202.   203 a        2.000        -0.241301 H =        -6.566 eV
  201.   201 a        2.000        -0.243041 H =        -6.613 eV
  200.   199 a        2.000        -0.243664 H =        -6.630 eV
  199.   200 a        2.000        -0.243664 H =        -6.630 eV
  198.   198 a        2.000        -0.245169 H =        -6.671 eV
  197.   197 a        2.000        -0.245169 H =        -6.671 eV
  196.   195 a        2.000        -0.246721 H =        -6.714 eV
  195.   196 a        2.000        -0.246721 H =        -6.714 eV
  194.   194 a        2.000        -0.247414 H =        -6.732 eV
  193.   193 a        2.000        -0.250704 H =        -6.822 eV


    ------------------------------------------------------------------------
         total  cpu-time :  15.11 seconds
         total wall-time :  15.30 seconds
    ------------------------------------------------------------------------

   ****  eiger : all done  ****


    2017-11-10 01:09:53.668 

