
   OpenMP run-time library returned nthreads = 28
 operating system is UNIX !

 dscf (c-15-25) : TURBOMOLE V7.3 ( 22142 ) 4 Jul 2018 at 18:12:42
 Copyright (C) 2018 TURBOMOLE GmbH, Karlsruhe


    2019-04-01 22:39:50.071 



                             d s c f - program

                   idea & directorship : reinhart ahlrichs
                   program development : marco haeser
                                         michael baer
                           dft version : oliver treutler


                          quantum chemistry group
                          universitaet  karlsruhe
                                  germany




                          References             
                                                 
          TURBOMOLE:                             
              R. Ahlrichs, M. Baer, M. Haeser, H. Horn, and
              C. Koelmel
              Electronic structure calculations on workstation
              computers: the program system TURBOMOLE
              Chem. Phys. Lett. 162: 165 (1989)
          Density Functional:                              
              O. Treutler and R. Ahlrichs                      
              Efficient Molecular Numerical Integration Schemes
              J. Chem. Phys. 102: 346 (1995)                   
          Parallel Version:                                
              Performance of parallel TURBOMOLE for Density    
              Functional Calculations                          
              M. v. Arnim and R. Ahlrichs                      
              J. Comp. Chem. 19: 1746 (1998)                   
                                         




              +--------------------------------------------------+
              | Atomic coordinate, charge and isotop information |
              +--------------------------------------------------+

                    atomic coordinates            atom    charge  isotop
          1.51161854   -1.93139770    1.29963450    c      0.000     0
          1.61298684   -2.12036912   -0.75213813    h      0.000     0
          2.81834152   -3.29600242    2.11596491    h      0.000     0
          2.11061056    0.80304439    2.07806012    c      0.000     0
          3.47358555    1.68213035    0.81343746    h      0.000     0
          2.93960050    0.83114811    3.96291360    h      0.000     0
         -0.46214983    2.20283408    2.08432473    c      0.000     0
         -0.48769599    3.78108335    0.76595009    h      0.000     0
         -0.84811759    2.98009021    3.95138799    h      0.000     0
         -2.45421412    0.19617607    1.39709153    c      0.000     0
         -2.78462631    0.19888116   -0.63873773    h      0.000     0
         -4.26460974    0.52542168    2.31899335    h      0.000     0
         -1.22242591   -2.30559506    2.14730828    c      0.000     0
         -2.12488211   -3.94504334    1.29067023    h      0.000     0
         -1.29638736   -2.54221704    4.19560788    h      0.000     0
          0.09419557    0.17802657   10.61322607    c      6.000     0
         -0.08786858   -0.10937427   13.47737149    c      6.000     0
          1.78777223   -0.13860116   14.33220275    h      1.000     0
         -1.14408332    1.45510070   14.30589340    h      1.000     0
         -1.04627096   -1.86429883   13.97880954    h      1.000     0
          1.44356064    2.64771932    9.97898696    c      6.000     0
          1.59761026    2.89999611    7.93868391    h      1.000     0
          0.41654667    4.26284639   10.74527352    h      1.000     0
          3.34765728    2.66784568   10.76933279    h      1.000     0
         -2.56089197    0.21548972    9.48445576    c      6.000     0
         -2.49110139    0.43694661    7.43627804    h      1.000     0
         -3.66127862    1.77909365   10.25611771    h      1.000     0
         -3.56226363   -1.53777332    9.90270751    h      1.000     0
          1.58311044   -2.03953852    9.52221504    c      6.000     0
          0.64727966   -3.82909166    9.93841427    h      1.000     0
          1.76233806   -1.87478697    7.47538694    h      1.000     0
          3.48175245   -2.11022304   10.32298357    h      1.000     0
 
       center of nuclear mass  :   -0.00251892   -0.01032329    6.27092073
       center of nuclear charge:    0.09449036    0.17859502   10.61570514

              +--------------------------------------------------+
              |               basis set information              |
              +--------------------------------------------------+

              we will work with the 1s 3p 5d 7f 9g ... basis set
              ...i.e. with spherical basis functions...

   type   atoms  prim   cont   basis
   ---------------------------------------------------------------------------
    c       10     50     30   cc-pVTZ   [4s3p2d1f|18s5p2d1f]
    h       22     16     14   cc-pVTZ   [3s2p1d|5s2p1d]
   ---------------------------------------------------------------------------
   total:   32    852    608
   ---------------------------------------------------------------------------

   total number of primitive shells          :   34
   total number of contracted shells         :  232
   total number of cartesian basis functions :  680
   total number of SCF-basis functions       :  608


 integral neglect threshold       :  0.49E-13
 integral storage threshold THIZE :  0.10E-04
 integral storage threshold THIME :         5


 DENSITY CONVERGENCE CHECK SWITCHED ON !
 SCF CONVERGENCE IF RMS(delta[D]) <     0.1000000000E-06


 symmetry group of the molecule :   c1 

 the group has the following generators :
   c1(z)

    1 symmetry operations found

 there are 1 real representations :   a   

 maximum number of shells which are related by symmetry :  1


    mo occupation :
   irrep   mo's   occupied
    a      608       21
 
 number of basis functions   :                    608
 number of occupied orbitals :                     21
 

 automatic virtual orbital shift switched on 
      shift if e(lumo)-e(homo) < 0.10000000    


          ------------------------
          nuclear repulsion energy  :   199.344815167    
          ------------------------


         -----------------
         -S,T+V- integrals
         -----------------

 1e-integrals will be neglected if expon. factor < 0.491465E-14
 
   Difference densities algorithm switched on.
   The maximal number of linear combinations of
   difference densities is                    20 .

 DIIS switched on: error vector is FDS-SDF
 Max. Iterations for DIIS is     :   5
 DIIS matrix (see manual) 
    Scaling factor of diagonals  :  1.200
    threshold for scaling factor :  0.000

 scf convergence criterion : increment of total energy < .1000000D-08
                  and increment of one-electron energy < .1000000D-05

  MOs are in ASCII format !


 reading orbital data $scfmo  from file mos
 orbital characterization : scfconv=9

 DSCF restart information will be dumped onto file mos

 
                                              current damping :  0.700
 ITERATION  ENERGY          1e-ENERGY        2e-ENERGY     RMS[dD(SAO)]   TOL
   1  -196.35822389688    -659.06247077     263.35943170    0.000D+00 0.490D-13
          max. resid. norm for Fia-block=  8.570D-02 for orbital      2a         
          max. resid. fock norm         =  2.360D-01 for orbital    548a         
          Delta Eig. =    20.8066910865 eV 
 
                                              current damping :  0.650
 ITERATION  ENERGY          1e-ENERGY        2e-ENERGY     RMS[dD(SAO)]   TOL
   2  -196.39405929729    -658.40549228     262.66661782    0.430D-03 0.312D-13
          Norm of current diis error: 0.42390    
          max. resid. norm for Fia-block=  4.184D-02 for orbital      4a         
          max. resid. fock norm         =  9.329D-02 for orbital    556a         
          Delta Eig. =     9.7037682634 eV 
 
                                              current damping :  0.600
 ITERATION  ENERGY          1e-ENERGY        2e-ENERGY     RMS[dD(SAO)]   TOL
   3  -196.40171192493    -658.59712415     262.85059706    0.225D-03 0.235D-13
          Norm of current diis error: 0.19187    
          max. resid. norm for Fia-block=  1.707D-02 for orbital      4a         
          max. resid. fock norm         =  3.935D-02 for orbital    555a         
          Delta Eig. =     3.6722016198 eV 
 
                                              current damping :  0.650
 ITERATION  ENERGY          1e-ENERGY        2e-ENERGY     RMS[dD(SAO)]   TOL
   4  -196.40333935705    -658.51744951     262.76929499    0.965D-04 0.209D-13
          Norm of current diis error: 0.77456E-01
          max. resid. norm for Fia-block=  6.418D-03 for orbital      4a         
          max. resid. fock norm         =  1.468D-02 for orbital    539a         
          Delta Eig. =     1.3836110075 eV 
 
                                              current damping :  0.500
 ITERATION  ENERGY          1e-ENERGY        2e-ENERGY     RMS[dD(SAO)]   TOL
   5  -196.40360095849    -658.51196694     262.76355081    0.392D-04 0.193D-13
          Norm of current diis error: 0.32901E-01
          max. resid. norm for Fia-block=  2.495D-03 for orbital      4a         
          max. resid. fock norm         =  5.890D-03 for orbital    543a         
 mo-orthogonalization: Cholesky decomposition
          Delta Eig. =     0.5877863940 eV 
 
                                              current damping :  0.350
 ITERATION  ENERGY          1e-ENERGY        2e-ENERGY     RMS[dD(SAO)]   TOL
   6  -196.40365116370    -658.50594292     262.75747659    0.180D-04 0.180D-13
          Norm of current diis error: 0.12118E-01
          max. resid. norm for Fia-block=  8.889D-04 for orbital     13a         
          max. resid. fock norm         =  2.024D-03 for orbital    558a         
          Delta Eig. =     0.2169127314 eV 
 
                                              current damping :  0.200
 ITERATION  ENERGY          1e-ENERGY        2e-ENERGY     RMS[dD(SAO)]   TOL
   7  -196.40365849476    -658.50338348     262.75490981    0.739D-05 0.168D-13
          Norm of current diis error: 0.36690E-02
          max. resid. norm for Fia-block=  2.653D-04 for orbital     13a         
          max. resid. fock norm         =  5.189D-04 for orbital    563a         
          Delta Eig. =     0.0639821092 eV 
 
                                              current damping :  0.050
 ITERATION  ENERGY          1e-ENERGY        2e-ENERGY     RMS[dD(SAO)]   TOL
   8  -196.40365923587    -658.50276068     262.75428628    0.260D-05 0.157D-13
          Norm of current diis error: 0.85298E-03
          max. resid. norm for Fia-block=  6.037D-05 for orbital     13a         
          max. resid. fock norm         =  8.945D-05 for orbital    563a         
          Delta Eig. =     0.0120286210 eV 
 
                                              current damping :  0.050
 ITERATION  ENERGY          1e-ENERGY        2e-ENERGY     RMS[dD(SAO)]   TOL
   9  -196.40365928321    -658.50235771     262.75388326    0.758D-06 0.148D-13
          Norm of current diis error: 0.14875E-03
          max. resid. norm for Fia-block=  1.288D-05 for orbital     21a         
          max. resid. fock norm         =  1.363D-05 for orbital     21a         
          Delta Eig. =     0.0010330852 eV 
 
                                              current damping :  0.100
 ITERATION  ENERGY          1e-ENERGY        2e-ENERGY     RMS[dD(SAO)]   TOL
  10  -196.40365928501    -658.50239352     262.75391907    0.179D-06 0.142D-13
          Norm of current diis error: 0.37443E-04
          max. resid. norm for Fia-block=  3.347D-06 for orbital     21a         
          max. resid. fock norm         =  3.387D-06 for orbital     21a         
 mo-orthogonalization: Cholesky decomposition
          Delta Eig. =     0.0000759928 eV 

 DENSITY CONVERGED !

 
                                              current damping :  0.150
 ITERATION  ENERGY          1e-ENERGY        2e-ENERGY     RMS[dD(SAO)]   TOL
  11  -196.40365928513    -658.50233161     262.75385716    0.460D-07 0.138D-13
          Norm of current diis error: 0.12291E-04
          max. resid. norm for Fia-block=  1.092D-06 for orbital     21a         
          max. resid. fock norm         =  1.351D-06 for orbital     21a         
          Delta Eig. =     0.0001105619 eV 

 DENSITY CONVERGED !

 
                                              current damping :  0.200
 ITERATION  ENERGY          1e-ENERGY        2e-ENERGY     RMS[dD(SAO)]   TOL
  12  -196.40365928513    -658.50235209     262.75387764    0.126D-07 0.136D-13
          Norm of current diis error: 0.31022E-05
          max. resid. norm for Fia-block=  2.800D-07 for orbital     21a         
          max. resid. fock norm         =  2.913D-07 for orbital     21a         
          Delta Eig. =     0.0000105413 eV 

 ENERGY & DENSITY CONVERGED !

 
                                              current damping :  0.250
 ITERATION  ENERGY          1e-ENERGY        2e-ENERGY     RMS[dD(SAO)]   TOL
  13  -196.40365928514    -658.50234783     262.75387337    0.305D-08 0.140D-13
          max. resid. norm for Fia-block=  5.676D-08 for orbital     21a         
          max. resid. fock norm         =  5.975D-08 for orbital     21a         

 convergence criteria satisfied after    13 iterations


                  ------------------------------------------ 
                 |  total energy      =   -196.40365928514  |
                  ------------------------------------------ 
                 :  kinetic energy    =    196.25838708120  :
                 :  potential energy  =   -392.66204636634  :
                 :  virial theorem    =      1.99926033861  :
                 :  wavefunction norm =      1.00000000000  :
                  .......................................... 


 orbitals $scfmo  will be written to file mos

    irrep                 17a         18a         19a         20a         21a   
 eigenvalues H         -0.50917    -0.50916    -0.45260    -0.45244    -0.45225
            eV         -13.8554    -13.8550    -12.3160    -12.3115    -12.3064
 occupation              2.0000      2.0000      2.0000      2.0000      2.0000 

    irrep                 22a         23a         24a         25a         26a   
 eigenvalues H          0.05872     0.11230     0.11343     0.12735     0.15816
            eV           1.5978      3.0558      3.0867      3.4654      4.3037
 
 
 
 
 ==============================================================================
                           electrostatic moments
 ==============================================================================

 reference point for electrostatic moments:    0.00000   0.00000   0.00000

 
              nuc           elec       ->  total
 ------------------------------------------------------------------------------
                          charge      
 ------------------------------------------------------------------------------
          42.000000     -42.000000       0.000000
 
 ------------------------------------------------------------------------------
                       dipole moment  
 ------------------------------------------------------------------------------
   x       3.968595      -3.968450       0.000145
   y       7.500991      -7.500794       0.000197
   z     445.859616    -445.859590       0.000025
 
   | dipole moment | =     0.0002 a.u. =     0.0006 debye 
 
 ------------------------------------------------------------------------------
                     quadrupole moment
 ------------------------------------------------------------------------------
  xx     134.469298    -161.084875     -26.615577
  yy     135.223391    -161.838674     -26.615282
  zz    4866.633772   -4893.250400     -26.616628
  xy       0.530907      -0.530582       0.000326
  xz      42.079741     -42.078214       0.001527
  yz      79.500735     -79.498545       0.002189
 
     1/3  trace=     -26.615829
     anisotropy=       0.004816
 
 ==============================================================================
 


    ------------------------------------------------------------------------
         total  cpu-time :  1 hours 11 minutes and 34 seconds
         total wall-time :  3 minutes and 26 seconds
    ------------------------------------------------------------------------

   ****  dscf : all done  ****


    2019-04-01 22:43:15.986 

