STARTING dscf ON 32 PROCESSORS!
RUNNING PROGRAM /sopt/TURBOMOLE/7.2.1-official/bin/em64t-unknown-linux-gnu_mpi/dscf_mpi.
PLEASE WAIT UNTIL dscf HAS FINISHED.
Look for the output in slave1.output.
MACHINEFILE is ./hostlist
 this is node-proc. number 1 running on node c-17-5.gp.local
 the total number of node-proc. spawned is  33
  parallel platform: MPP or cluster with fast interconnect

 dscf (c-17-5.gp.local) : TURBOMOLE V7.2 ( 21471 ) 7 Nov 2017 at 16:15:16
 Copyright (C) 2017 TURBOMOLE GmbH, Karlsruhe


    2018-02-20 20:29:45.988 


 SCF run will be profiled !



                             d s c f - program

                   idea & directorship : reinhart ahlrichs
                   program development : marco haeser
                                         michael baer
                           dft version : oliver treutler
           parallelized version : malte v. arnim, gina corongiu, GMD 


                          quantum chemistry group
                          universitaet  karlsruhe
                                  germany




                          References             
                                                 
          TURBOMOLE:                             
              R. Ahlrichs, M. Baer, M. Haeser, H. Horn, and
              C. Koelmel
              Electronic structure calculations on workstation
              computers: the program system TURBOMOLE
              Chem. Phys. Lett. 162: 165 (1989)
          Density Functional:                              
              O. Treutler and R. Ahlrichs                      
              Efficient Molecular Numerical Integration Schemes
              J. Chem. Phys. 102: 346 (1995)                   
          Parallel Version:                                
              Performance of parallel TURBOMOLE for Density    
              Functional Calculations                          
              M. v. Arnim and R. Ahlrichs                      
              J. Comp. Chem. 19: 1746 (1998)                   
                                         




              +--------------------------------------------------+
              | Atomic coordinate, charge and isotop information |
              +--------------------------------------------------+

                    atomic coordinates            atom    charge  isotop
          0.55678650    7.16619056    6.08923677    c      6.000     0
          0.94964135    6.87105738    3.48704933    c      6.000     0
          1.41085660    9.05241356    2.00286579    c      6.000     0
          1.46985657   11.44872388    3.15083560    c      6.000     0
          1.07602272   11.68273831    5.72530310    c      6.000     0
          0.60832648    9.53905070    7.24309806    c      6.000     0
          1.76107574    8.74055328   -0.65241502    c      6.000     0
          1.73652693    6.57768610   -1.85061532    n      7.000     0
          1.36407775    4.37236203   -0.49601687    c      6.000     0
          0.92395734    4.44971696    2.19383238    c      6.000     0
          0.50695343    2.16786417    3.39541312    c      6.000     0
          0.60366892   -0.09381260    2.01682339    c      6.000     0
          1.11791520    0.00959234   -0.65175322    c      6.000     0
          1.44418684    2.24392819   -1.85852429    n      7.000     0
          1.34565618   -2.12395972   -2.04800891    n      7.000     0
          1.06722315   -4.35441400   -0.89124923    c      6.000     0
          0.47761581   -4.64170492    1.75543476    c      6.000     0
          0.25513812   -2.45596477    3.16764082    c      6.000     0
          1.38812487   -6.45028310   -2.41862460    n      7.000     0
          1.13386299   -8.70875224   -1.44637714    c      6.000     0
          0.54019810   -9.23186296    1.13141927    c      6.000     0
          0.18761464   -7.16500835    2.79768267    c      6.000     0
          0.28987010  -11.71947586    2.03284233    c      6.000     0
         -0.30066317  -12.15428450    4.54290542    c      6.000     0
         -0.66377626  -10.12715012    6.23887746    c      6.000     0
         -0.41088544   -7.66298129    5.32873506    c      6.000     0
         -1.32799346  -10.54371936    9.02314793    c      6.000     0
         -3.89855970   -9.27439623    9.58673718    c      6.000     0
          0.15354967    9.73518956   10.09300263    c      6.000     0
          2.17664005    8.15964298   11.49314946    c      6.000     0
         -2.49515714    8.66534276   10.70712419    c      6.000     0
          0.28891973   12.47419055   11.04973453    c      6.000     0
          0.73621102   -9.32010861   10.68973627    c      6.000     0
         -1.51790377  -13.36030883    9.70659688    c      6.000     0
         -0.69263271   -6.09706518    6.62179679    h      1.000     0
          0.20283012    5.51090803    7.24632857    h      1.000     0
          1.12671503   13.54570931    6.57389703    h      1.000     0
         -0.48677096  -14.08457085    5.20096702    h      1.000     0
         -0.15357266   -2.52013758    5.17685002    h      1.000     0
          0.13045318    2.07566948    5.40980010    h      1.000     0
          1.82216826   13.10985425    1.99564595    h      1.000     0
          0.56198432  -13.29077371    0.73880159    h      1.000     0
          1.39416784  -10.29879852   -2.73090039    h      1.000     0
          2.05866460   10.42345079   -1.80406564    h      1.000     0
         -1.99223601  -13.53807824   11.71250566    h      1.000     0
         -0.04779209   12.49379744   13.09086622    h      1.000     0
         -2.66180093    6.68377477   10.13790532    h      1.000     0
          2.09870580    6.16755210   10.94252039    h      1.000     0
         -3.83714955   -7.24140626    9.21161378    h      1.000     0
          0.88610863   -7.28741196   10.33818900    h      1.000     0
         -2.99783480  -14.31249800    8.61664856    h      1.000     0
          0.27406078  -14.34617997    9.38656359    h      1.000     0
          2.14957711   13.31291816   10.70370997    h      1.000     0
         -1.14832778   13.66656362   10.15683619    h      1.000     0
          4.07546347    8.87428646   11.08432943    h      1.000     0
         -3.96643776    9.74692301    9.73336009    h      1.000     0
         -5.39641120  -10.10471933    8.42499451    h      1.000     0
          2.58157238  -10.18227319   10.32263034    h      1.000     0
         -4.38603471   -9.54796480   11.58019718    h      1.000     0
          0.26936746   -9.59513381   12.68784255    h      1.000     0
         -2.83566521    8.78095847   12.74594849    h      1.000     0
          1.85719704    8.27625875   13.53531575    h      1.000     0
 
       center of nuclear mass  :    0.40993249   -0.18402187    4.05739107
       center of nuclear charge:    0.36666988   -0.19374017    4.29948798

              +--------------------------------------------------+
              |               basis set information              |
              +--------------------------------------------------+

              we will work with the 1s 3p 5d 7f 9g ... basis set
              ...i.e. with spherical basis functions...

   type   atoms  prim   cont   basis
   ---------------------------------------------------------------------------
    c       30     77     55   cc-pVQZ   [5s4p3d2f1g|21s6p3d2f1g]
    n        4     77     55   cc-pVQZ   [5s4p3d2f1g|21s6p3d2f1g]
    h       28     32     30   cc-pVQZ   [4s3p2d1f|6s3p2d1f]
   ---------------------------------------------------------------------------
   total:   62   3514   2710
   ---------------------------------------------------------------------------

   total number of primitive shells          :   78
   total number of contracted shells         :  790
   total number of cartesian basis functions : 3360
   total number of SCF-basis functions       : 2710


 integral neglect threshold       :  0.99E-12
 integral storage threshold THIZE :  0.10E-04
 integral storage threshold THIME :         5


 DENSITY CONVERGENCE CHECK SWITCHED ON !
 SCF CONVERGENCE IF RMS(delta[D]) <     0.1000000000E-06


 symmetry group of the molecule :   c1 

 the group has the following generators :
   c1(z)

    1 symmetry operations found

 there are 1 real representations :   a   

 maximum number of shells which are related by symmetry :  1


    mo occupation :
   irrep   mo's   occupied
    a     2710      118
 
 number of basis functions   :                   2710
 number of occupied orbitals :                    118
 

 automatic virtual orbital shift switched on 
      shift if e(lumo)-e(homo) < 0.10000000    


 keyword $2e-ints_shell_statistics missing in file <control>

 ! One task per shell generated
  No pre-computed optimal task distribution found
  ... using automatic task generation

          ------------------------
          nuclear repulsion energy  :   3164.26624541    
          ------------------------


         -----------------
         -S,T+V- integrals
         -----------------

 1e-integrals will be neglected if expon. factor < 0.994631E-13
 
   Difference densities algorithm switched on.
   The maximal number of linear combinations of
   difference densities is                    20 .

 DIIS switched on: error vector is FDS-SDF
 Max. Iterations for DIIS is     :   5
 DIIS matrix (see manual) 
    Scaling factor of diagonals  :  1.200
    threshold for scaling factor :  0.000

 scf convergence criterion : increment of total energy < .1000000D-06
                  and increment of one-electron energy < .1000000D-03

  MOs are in ASCII format !


 reading orbital data $scfmo  from file mos
 orbital characterization : expanded
 mo provided and orthogonalized by Cholesky decomposition

 DSCF restart information will be dumped onto file mos

 
                                              current damping :  0.300
 ITERATION  ENERGY          1e-ENERGY        2e-ENERGY     RMS[dD(SAO)]   TOL
   1  -1365.6005277946    -8104.9324521     3575.0656789    0.000D+00 0.992D-12
          max. resid. norm for Fia-block=  3.080D-01 for orbital      1a         
          max. resid. fock norm         =  7.793D+00 for orbital   2480a         
          Delta Eig. =   668.3826461863 eV 
 
                                              current damping :  0.250
 ITERATION  ENERGY          1e-ENERGY        2e-ENERGY     RMS[dD(SAO)]   TOL
   2  -1370.0766617644    -8145.9086732     3611.5657660    0.941D-02 0.977D-12
          Norm of current diis error:  5.2908    
          max. resid. norm for Fia-block=  1.164D-01 for orbital      3a         
          max. resid. fock norm         =  3.249D-01 for orbital   2473a         
          Delta Eig. =   150.5508050381 eV 
 
                                              current damping :  0.150
 ITERATION  ENERGY          1e-ENERGY        2e-ENERGY     RMS[dD(SAO)]   TOL
   3  -1370.5872906198    -8149.0065197     3614.1529837    0.164D-02 0.576D-12
          Norm of current diis error:  1.9123    
          max. resid. norm for Fia-block=  5.137D-02 for orbital    109a         
          max. resid. fock norm         =  5.594D-02 for orbital    114a         
          Delta Eig. =    37.2511225881 eV 
 
                                              current damping :  0.100
 ITERATION  ENERGY          1e-ENERGY        2e-ENERGY     RMS[dD(SAO)]   TOL
   4  -1370.6857273207    -8151.7806181     3616.8286454    0.696D-03 0.473D-12
          Norm of current diis error: 0.57545    
          max. resid. norm for Fia-block=  1.881D-02 for orbital    114a         
          max. resid. fock norm         =  3.785D-02 for orbital   2285a         
          Delta Eig. =     3.9033321344 eV 
 
                                              current damping :  0.100
 ITERATION  ENERGY          1e-ENERGY        2e-ENERGY     RMS[dD(SAO)]   TOL
   5  -1370.6967043253    -8152.0855173     3617.1225676    0.176D-03 0.436D-12
          Norm of current diis error: 0.18421    
          max. resid. norm for Fia-block=  8.646D-03 for orbital    117a         
          max. resid. fock norm         =  1.000D-02 for orbital    117a         
 mo-orthogonalization: Cholesky decomposition
          Delta Eig. =     0.8268983653 eV 
 
                                              current damping :  0.150
 ITERATION  ENERGY          1e-ENERGY        2e-ENERGY     RMS[dD(SAO)]   TOL
   6  -1370.6984948882    -8152.0375613     3617.0728211    0.905D-04 0.409D-12
          Norm of current diis error: 0.90107E-01
          max. resid. norm for Fia-block=  3.065D-03 for orbital    117a         
          max. resid. fock norm         =  3.777D-03 for orbital   2694a         
          Delta Eig. =     0.1615890838 eV 
 
                                              current damping :  0.200
 ITERATION  ENERGY          1e-ENERGY        2e-ENERGY     RMS[dD(SAO)]   TOL
   7  -1370.6989487737    -8152.0681593     3617.1029651    0.247D-04 0.390D-12
          Norm of current diis error: 0.43358E-01
          max. resid. norm for Fia-block=  2.977D-03 for orbital    117a         
          max. resid. fock norm         =  2.999D-03 for orbital    117a         
          Delta Eig. =     0.0751286403 eV 
 
                                              current damping :  0.250
 ITERATION  ENERGY          1e-ENERGY        2e-ENERGY     RMS[dD(SAO)]   TOL
   8  -1370.6991252924    -8152.0599665     3617.0945958    0.131D-04 0.372D-12
          Norm of current diis error: 0.24744E-01
          max. resid. norm for Fia-block=  2.054D-03 for orbital    117a         
          max. resid. fock norm         =  2.059D-03 for orbital    117a         
          Delta Eig. =     0.0367633745 eV 
 
                                              current damping :  0.100
 ITERATION  ENERGY          1e-ENERGY        2e-ENERGY     RMS[dD(SAO)]   TOL
   9  -1370.6992001722    -8152.0494820     3617.0840364    0.871D-05 0.353D-12
          Norm of current diis error: 0.15175E-01
          max. resid. norm for Fia-block=  1.486D-03 for orbital    117a         
          max. resid. fock norm         =  1.490D-03 for orbital    117a         
          Delta Eig. =     0.0235661133 eV 
 
                                              current damping :  0.150
 ITERATION  ENERGY          1e-ENERGY        2e-ENERGY     RMS[dD(SAO)]   TOL
  10  -1370.6992360366    -8152.0521004     3617.0866190    0.802D-05 0.330D-12
          Norm of current diis error: 0.86833E-02
          max. resid. norm for Fia-block=  8.614D-04 for orbital    117a         
          max. resid. fock norm         =  8.734D-04 for orbital    119a         
 mo-orthogonalization: Cholesky decomposition
          Delta Eig. =     0.0225505827 eV 
 
                                              current damping :  0.200
 ITERATION  ENERGY          1e-ENERGY        2e-ENERGY     RMS[dD(SAO)]   TOL
  11  -1370.6992474314    -8152.0451776     3617.0796848    0.477D-05 0.313D-12
          Norm of current diis error: 0.49418E-02
          max. resid. norm for Fia-block=  4.406D-04 for orbital    118a         
          max. resid. fock norm         =  4.449D-04 for orbital    118a         
          Delta Eig. =     0.0091865419 eV 
 
                                              current damping :  0.250
 ITERATION  ENERGY          1e-ENERGY        2e-ENERGY     RMS[dD(SAO)]   TOL
  12  -1370.6992505271    -8152.0471067     3617.0816108    0.233D-05 0.302D-12
          Norm of current diis error: 0.28362E-02
          max. resid. norm for Fia-block=  3.417D-04 for orbital    118a         
          max. resid. fock norm         =  3.434D-04 for orbital    118a         
          Delta Eig. =     0.0068544923 eV 
 
                                              current damping :  0.300
 ITERATION  ENERGY          1e-ENERGY        2e-ENERGY     RMS[dD(SAO)]   TOL
  13  -1370.6992516541    -8152.0460731     3617.0805760    0.152D-05 0.291D-12
          Norm of current diis error: 0.13602E-02
          max. resid. norm for Fia-block=  1.466D-04 for orbital    118a         
          max. resid. fock norm         =  1.478D-04 for orbital    118a         
          Delta Eig. =     0.0019564033 eV 
 
                                              current damping :  0.150
 ITERATION  ENERGY          1e-ENERGY        2e-ENERGY     RMS[dD(SAO)]   TOL
  14  -1370.6992518880    -8152.0457632     3617.0802659    0.529D-06 0.283D-12
          Norm of current diis error: 0.65514E-03
          max. resid. norm for Fia-block=  7.779D-05 for orbital    118a         
          max. resid. fock norm         =  7.850D-05 for orbital    118a         
          Delta Eig. =     0.0015092799 eV 
 
                                              current damping :  0.200
 ITERATION  ENERGY          1e-ENERGY        2e-ENERGY     RMS[dD(SAO)]   TOL
  15  -1370.6992519404    -8152.0459202     3617.0804229    0.290D-06 0.283D-12
          Norm of current diis error: 0.27332E-03
          max. resid. norm for Fia-block=  1.861D-05 for orbital    117a         
          max. resid. fock norm         =  1.948D-05 for orbital    117a         
 mo-orthogonalization: Cholesky decomposition
          Delta Eig. =     0.0004543909 eV 

 ENERGY & DENSITY CONVERGED !

 
                                              current damping :  0.250
 ITERATION  ENERGY          1e-ENERGY        2e-ENERGY     RMS[dD(SAO)]   TOL
  16  -1370.6992519458    -8152.0458340     3617.0803367    0.912D-07 0.283D-12
          max. resid. norm for Fia-block=  5.269D-06 for orbital    117a         
          max. resid. fock norm         =  5.645D-06 for orbital    120a         

 convergence criteria satisfied after    16 iterations


                  ------------------------------------------ 
                 |  total energy      =  -1370.69925194583  |
                  ------------------------------------------ 
                 :  kinetic energy    =   1368.74406652925  :
                 :  potential energy  =  -2739.44331847508  :
                 :  virial theorem    =      1.99857358541  :
                 :  wavefunction norm =      1.00000000000  :
                  .......................................... 


 <geterg> : there is no data group $energy 


 <skperg> : $end is missing 


 orbitals $scfmo  will be written to file mos

    irrep                114a        115a        116a        117a        118a   
 eigenvalues H         -0.37747    -0.33756    -0.33470    -0.29018    -0.28999
            eV         -10.2717     -9.1857     -9.1078     -7.8963     -7.8912
 occupation              2.0000      2.0000      2.0000      2.0000      2.0000 

    irrep                119a        120a        121a        122a        123a   
 eigenvalues H          0.01327     0.06137     0.07998     0.08138     0.08433
            eV           0.3611      1.6700      2.1764      2.2145      2.2947
 
 
 
 
 ==============================================================================
                           electrostatic moments
 ==============================================================================

 reference point for electrostatic moments:    0.00000   0.00000   0.00000

 
              nuc           elec       ->  total
 ------------------------------------------------------------------------------
                          charge      
 ------------------------------------------------------------------------------
         236.000000    -236.000000      -0.000000
 
 ------------------------------------------------------------------------------
                       dipole moment  
 ------------------------------------------------------------------------------
   x      86.534092     -87.270857      -0.736766
   y     -45.722680      45.548088      -0.174593
   z    1014.679164   -1010.389347       4.289816
 
   | dipole moment | =     4.3561 a.u. =    11.0722 debye 
 
 ------------------------------------------------------------------------------
                     quadrupole moment
 ------------------------------------------------------------------------------
  xx     514.369286    -670.396870    -156.027585
  yy   17008.776621  -17115.410292    -106.633671
  zz    9332.970691   -9469.417417    -136.446726
  xy    1039.398805   -1036.460546       2.938259
  xz    -420.324601     421.565511       1.240909
  yz     459.390323    -457.753394       1.636929
 
     1/3  trace=    -133.035994
     anisotropy=      43.526449
 
 ==============================================================================
 

    dscf profiling
  --------------------------------------------------------------------
             module   cpu total (s)       %  wall total (s)       %

          dscf.total          9906.2  100.00          9266.6  100.00
        dscf.prepare            23.7    0.24            23.8    0.26
      prepare.oneint             0.4    0.00             0.4    0.00
     prepare.moinput             0.3    0.00             0.3    0.00
     moinput_orthmos            22.7    0.23            22.7    0.25
            dscf.scf          9880.6   99.74          9240.8   99.72
             scf.pre             0.0    0.00             0.0    0.00
        scf.makedmat            11.8    0.12            12.0    0.13
          scf.shloop          8706.0   87.88          8706.1   93.95
          shloop_omp          8704.7   87.87          8704.8   93.94
          scf.symcar             1.9    0.02             1.9    0.02
        scf.makefock             3.0    0.03             4.2    0.05
          scf.newerg             0.1    0.00             0.1    0.00
          scf.newcnv           198.0    2.00            25.1    0.27
           scf.fdiag           479.8    4.84            60.6    0.65
         diag_tritrn           139.7    1.41            17.5    0.19
          diag_rdiag           331.9    3.35            42.1    0.45
          scf.modump           400.7    4.05           383.9    4.14
           ortho_all            49.0    0.50            20.0    0.22
            scf.post            27.4    0.28            26.4    0.28
        dscf.postscf             1.8    0.02             2.0    0.02
 


    ------------------------------------------------------------------------
         total  cpu-time :  2 hours 45 minutes and  6 seconds
         total wall-time :  2 hours 34 minutes and 27 seconds
    ------------------------------------------------------------------------

   ****  dscf : all done  ****


    2018-02-20 23:04:12.730 

