 this is node-proc. number 0 running on node c-17-5.gp.local
 the total number of node-proc. spawned is  33

 dscfserver (c-17-5.gp.local) : TURBOMOLE V7.2 ( 21471 ) 7 Nov 2017 at 16:15:16
 Copyright (C) 2017 TURBOMOLE GmbH, Karlsruhe


    2018-02-20 20:29:45.859 

 
    0:00:24 ---- Start global counter...
    0:14:20 ---- ... finished.
 
    0:14:53 ---- Start global counter...
    0:28:00 ---- ... finished.
 
    0:28:32 ---- Start global counter...
    0:41:21 ---- ... finished.
 
    0:41:54 ---- Start global counter...
    0:54:01 ---- ... finished.
 
    0:54:33 ---- Start global counter...
    1:05:36 ---- ... finished.
 
    1:06:16 ---- Start global counter...
    1:16:39 ---- ... finished.
 
    1:17:12 ---- Start global counter...
    1:26:49 ---- ... finished.
 
    1:27:22 ---- Start global counter...
    1:36:23 ---- ... finished.
 
    1:36:56 ---- Start global counter...
    1:45:20 ---- ... finished.
 
    1:45:53 ---- Start global counter...
    1:53:48 ---- ... finished.
 
    1:54:27 ---- Start global counter...
    2:01:52 ---- ... finished.
 
    2:02:25 ---- Start global counter...
    2:09:04 ---- ... finished.
 
    2:09:37 ---- Start global counter...
    2:15:35 ---- ... finished.
 
    2:16:08 ---- Start global counter...
    2:21:20 ---- ... finished.
 
    2:21:53 ---- Start global counter...
    2:28:17 ---- ... finished.
 
    2:28:57 ---- Start global counter...
    2:33:56 ---- ... finished.
 
    2:34:26 ---- ByeBye Tag received


 ! Total wall-clock time in seconds  :     9266.3
 ! Time (sec) spent in global counter:     8702.5
 ! So-called SERIAL wall-clock time  :      563.8

  *** Regular termination of server ***
 total turnaround time of dscfserver  9266.83 sec
 cpu elapsed by dscfserver process    8700.95 sec 

   ***  dscf server : all done  ***


    2018-02-20 23:04:12.683 

