
   OpenMP run-time library returned nthreads = 28
 operating system is UNIX !

 dscf (c-14-38) : TURBOMOLE V7.3 ( 22142 ) 4 Jul 2018 at 18:12:42
 Copyright (C) 2018 TURBOMOLE GmbH, Karlsruhe


    2019-03-28 11:18:54.031 



                             d s c f - program

                   idea & directorship : reinhart ahlrichs
                   program development : marco haeser
                                         michael baer
                           dft version : oliver treutler


                          quantum chemistry group
                          universitaet  karlsruhe
                                  germany




                          References             
                                                 
          TURBOMOLE:                             
              R. Ahlrichs, M. Baer, M. Haeser, H. Horn, and
              C. Koelmel
              Electronic structure calculations on workstation
              computers: the program system TURBOMOLE
              Chem. Phys. Lett. 162: 165 (1989)
          Density Functional:                              
              O. Treutler and R. Ahlrichs                      
              Efficient Molecular Numerical Integration Schemes
              J. Chem. Phys. 102: 346 (1995)                   
          Parallel Version:                                
              Performance of parallel TURBOMOLE for Density    
              Functional Calculations                          
              M. v. Arnim and R. Ahlrichs                      
              J. Comp. Chem. 19: 1746 (1998)                   
                                         




              +--------------------------------------------------+
              | Atomic coordinate, charge and isotop information |
              +--------------------------------------------------+

                    atomic coordinates            atom    charge  isotop
         12.59502468   16.72974545   76.63406387    n      7.000     0
         14.42805902   15.56756388   75.36038845    c      6.000     0
         14.75309192   13.19406786   76.02746178    n      7.000     0
         12.97296990   12.78588702   77.90018038    c      6.000     0
         12.41739042   10.60514306   79.29857771    c      6.000     0
         13.42272472    8.47542171   79.17385579    o      8.000     0
         10.43506771   11.07190541   81.03523603    n      7.000     0
          9.27288613   13.39437883   81.39995317    c      6.000     0
          7.68551618   13.56067473   83.24810533    n      7.000     0
          9.73397931   15.39748853   80.03746063    n      7.000     0
         11.63882325   14.95340289   78.33103793    c      6.000     0
         11.89015683   18.48530103   76.36383303    h      1.000     0
          9.94940809    9.57902177   82.19363815    h      1.000     0
         15.49953374   16.50297832   73.89207125    h      1.000     0
          7.29812233   12.11881369   84.47264787    h      1.000     0
          6.75766065   15.21418510   83.45219575    h      1.000     0
         12.86336579   15.26142825   86.55512606    n      7.000     0
         14.55278095   15.34268647   84.64272322    c      6.000     0
         15.43906251   13.15249388   84.13438689    n      7.000     0
         14.35624943   11.53299859   85.85214794    c      6.000     0
         14.70395904    8.81557241   86.24332125    c      6.000     0
         16.07401049    7.31324013   84.91673351    o      8.000     0
         13.30745143    7.93684976   88.31257137    n      7.000     0
         11.72197120    9.45429984   89.73175569    c      6.000     0
         10.56923826    8.28266964   91.65927635    n      7.000     0
         11.37615132   11.91094382   89.28200087    n      7.000     0
         12.76321030   12.79344592   87.35448022    c      6.000     0
         11.85047258   16.70328929   87.29589871    h      1.000     0
         13.35469458    6.00365992   88.64516317    h      1.000     0
         14.97607960   17.06989616   83.63360946    h      1.000     0
         10.68451156    6.37026679   91.96163253    h      1.000     0
          9.28989367    9.30690120   92.63437503    h      1.000     0
 
       center of nuclear mass  :   12.55604553   12.09944768   83.11397282
       center of nuclear charge:   12.51153754   12.11938303   83.15664743

              +--------------------------------------------------+
              |               basis set information              |
              +--------------------------------------------------+

              we will work with the 1s 3p 5d 7f 9g ... basis set
              ...i.e. with spherical basis functions...

   type   atoms  prim   cont   basis
   ---------------------------------------------------------------------------
    n       10     77     57   def2-QZVP   [7s4p3d2f1g|15s8p3d2f1g]
    c       10     77     57   def2-QZVP   [7s4p3d2f1g|15s8p3d2f1g]
    o        2     77     57   def2-QZVP   [7s4p3d2f1g|15s8p3d2f1g]
    h       10     33     30   def2-QZVP   [4s3p2d1f|7s3p2d1f]
   ---------------------------------------------------------------------------
   total:   32   2024   1554
   ---------------------------------------------------------------------------

   total number of primitive shells          :  100
   total number of contracted shells         :  474
   total number of cartesian basis functions : 1934
   total number of SCF-basis functions       : 1554


 integral neglect threshold       :  0.17E-13
 integral storage threshold THIZE :  0.10E-04
 integral storage threshold THIME :         5


 symmetry group of the molecule :   c1 

 the group has the following generators :
   c1(z)

    1 symmetry operations found

 there are 1 real representations :   a   

 maximum number of shells which are related by symmetry :  1


    mo occupation :
   irrep   mo's   occupied
    a     1554       78
 
 number of basis functions   :                   1554
 number of occupied orbitals :                     78
 

 automatic virtual orbital shift switched on 
      shift if e(lumo)-e(homo) < 0.10000000    


          ------------------------
          nuclear repulsion energy  :   1842.11678147    
          ------------------------


         -----------------
         -S,T+V- integrals
         -----------------

 1e-integrals will be neglected if expon. factor < 0.172800E-14
 
   Difference densities algorithm switched on.
   The maximal number of linear combinations of
   difference densities is                    20 .

 DIIS switched on: error vector is FDS-SDF
 Max. Iterations for DIIS is     :   5
 DIIS matrix (see manual) 
    Scaling factor of diagonals  :  1.200
    threshold for scaling factor :  0.000

 scf convergence criterion : increment of total energy < .1000000D-08
                  and increment of one-electron energy < .1000000D-05

  MOs are in ASCII format !


 reading orbital data $scfmo  from file mos
 orbital characterization : expanded
 mo provided and orthogonalized by Cholesky decomposition

 DSCF restart information will be dumped onto file mos

 
                                              current damping :  0.300
 ITERATION  ENERGY          1e-ENERGY        2e-ENERGY     NORM[dD(SAO)]  TOL
   1  -1074.2985544110    -5112.4959868     2196.0806510    0.000D+00 0.172D-13
          max. resid. norm for Fia-block=  8.766D-01 for orbital     24a         
          max. resid. fock norm         =  6.192D+01 for orbital   1441a         
          Delta Eig. =  5342.0193593115 eV 
 
                                              current damping :  0.250
 ITERATION  ENERGY          1e-ENERGY        2e-ENERGY     NORM[dD(SAO)]  TOL
   2  -1078.7492377104    -5135.3939394     2214.5279202    0.374D+01 0.155D-13
          Norm of current diis error:  4.5700    
          max. resid. norm for Fia-block=  1.284D-01 for orbital      1a         
          max. resid. fock norm         =  4.374D-01 for orbital   1502a         
          Delta Eig. =  1260.4421972882 eV 
 
                                              current damping :  0.200
 ITERATION  ENERGY          1e-ENERGY        2e-ENERGY     NORM[dD(SAO)]  TOL
   3  -1079.1185650160    -5135.6606111     2214.4252646    0.135D+01 0.986D-14
          Norm of current diis error:  1.7026    
          max. resid. norm for Fia-block=  5.299D-02 for orbital     61a         
          max. resid. fock norm         =  5.868D-02 for orbital     61a         
          Delta Eig. =   270.8885909474 eV 
 
                                              current damping :  0.250
 ITERATION  ENERGY          1e-ENERGY        2e-ENERGY     NORM[dD(SAO)]  TOL
   4  -1079.1990573070    -5136.6081434     2215.2923046    0.492D+00 0.821D-14
          Norm of current diis error: 0.51382    
          max. resid. norm for Fia-block=  1.806D-02 for orbital     61a         
          max. resid. fock norm         =  4.251D-02 for orbital   1504a         
          Delta Eig. =    40.4515491612 eV 
 
                                              current damping :  0.300
 ITERATION  ENERGY          1e-ENERGY        2e-ENERGY     NORM[dD(SAO)]  TOL
   5  -1079.2083638574    -5136.5115333     2215.1863879    0.122D+00 0.751D-14
          Norm of current diis error: 0.17694    
          max. resid. norm for Fia-block=  6.287D-03 for orbital     77a         
          max. resid. fock norm         =  6.806D-03 for orbital     58a         
 mo-orthogonalization: Cholesky decomposition
          Delta Eig. =     8.5202837553 eV 
 
                                              current damping :  0.350
 ITERATION  ENERGY          1e-ENERGY        2e-ENERGY     NORM[dD(SAO)]  TOL
   6  -1079.2098612458    -5136.5481499     2215.2215072    0.280D-01 0.702D-14
          Norm of current diis error: 0.71527E-01
          max. resid. norm for Fia-block=  3.442D-03 for orbital     78a         
          max. resid. fock norm         =  3.498D-03 for orbital     78a         
          Delta Eig. =     1.7517087207 eV 
 
                                              current damping :  0.400
 ITERATION  ENERGY          1e-ENERGY        2e-ENERGY     NORM[dD(SAO)]  TOL
   7  -1079.2102046914    -5136.5099819     2215.1829958    0.102D-01 0.662D-14
          Norm of current diis error: 0.35685E-01
          max. resid. norm for Fia-block=  2.044D-03 for orbital     77a         
          max. resid. fock norm         =  2.070D-03 for orbital     77a         
          Delta Eig. =     0.4369544222 eV 
 
                                              current damping :  0.450
 ITERATION  ENERGY          1e-ENERGY        2e-ENERGY     NORM[dD(SAO)]  TOL
   8  -1079.2102987410    -5136.5117192     2215.1846389    0.405D-02 0.624D-14
          Norm of current diis error: 0.17097E-01
          max. resid. norm for Fia-block=  1.332D-03 for orbital     78a         
          max. resid. fock norm         =  1.343D-03 for orbital     78a         
          Delta Eig. =     0.1137860263 eV 
 
                                              current damping :  0.500
 ITERATION  ENERGY          1e-ENERGY        2e-ENERGY     NORM[dD(SAO)]  TOL
   9  -1079.2103253878    -5136.5057914     2215.1786845    0.142D-02 0.593D-14
          Norm of current diis error: 0.90634E-02
          max. resid. norm for Fia-block=  7.573D-04 for orbital     77a         
          max. resid. fock norm         =  7.674D-04 for orbital     77a         
          Delta Eig. =     0.0360271278 eV 
 
                                              current damping :  0.550
 ITERATION  ENERGY          1e-ENERGY        2e-ENERGY     NORM[dD(SAO)]  TOL
  10  -1079.2103331944    -5136.5060774     2215.1789627    0.490D-03 0.567D-14
          Norm of current diis error: 0.47806E-02
          max. resid. norm for Fia-block=  4.711D-04 for orbital     78a         
          max. resid. fock norm         =  4.738D-04 for orbital     78a         
 mo-orthogonalization: Cholesky decomposition
          Delta Eig. =     0.0122327583 eV 
 
                                              current damping :  0.600
 ITERATION  ENERGY          1e-ENERGY        2e-ENERGY     NORM[dD(SAO)]  TOL
  11  -1079.2103355738    -5136.5047126     2215.1775955    0.158D-03 0.544D-14
          Norm of current diis error: 0.24746E-02
          max. resid. norm for Fia-block=  2.557D-04 for orbital     78a         
          max. resid. fock norm         =  2.575D-04 for orbital     78a         
          Delta Eig. =     0.0043135123 eV 
 
                                              current damping :  0.650
 ITERATION  ENERGY          1e-ENERGY        2e-ENERGY     NORM[dD(SAO)]  TOL
  12  -1079.2103362393    -5136.5050235     2215.1779058    0.470D-04 0.524D-14
          Norm of current diis error: 0.13058E-02
          max. resid. norm for Fia-block=  1.418D-04 for orbital     78a         
          max. resid. fock norm         =  1.424D-04 for orbital     78a         
          Delta Eig. =     0.0023991553 eV 
 
                                              current damping :  0.700
 ITERATION  ENERGY          1e-ENERGY        2e-ENERGY     NORM[dD(SAO)]  TOL
  13  -1079.2103364236    -5136.5047779     2215.1776600    0.150D-04 0.506D-14
          Norm of current diis error: 0.67175E-03
          max. resid. norm for Fia-block=  7.334D-05 for orbital     78a         
          max. resid. fock norm         =  7.375D-05 for orbital     78a         
          Delta Eig. =     0.0007789056 eV 
 
                                              current damping :  0.750
 ITERATION  ENERGY          1e-ENERGY        2e-ENERGY     NORM[dD(SAO)]  TOL
  14  -1079.2103364728    -5136.5048178     2215.1776999    0.490D-05 0.490D-14
          Norm of current diis error: 0.35905E-03
          max. resid. norm for Fia-block=  3.808D-05 for orbital     78a         
          max. resid. fock norm         =  3.824D-05 for orbital     78a         
          Delta Eig. =     0.0005377544 eV 
 
                                              current damping :  0.800
 ITERATION  ENERGY          1e-ENERGY        2e-ENERGY     NORM[dD(SAO)]  TOL
  15  -1079.2103364862    -5136.5047947     2215.1776768    0.187D-05 0.475D-14
          Norm of current diis error: 0.19398E-03
          max. resid. norm for Fia-block=  1.913D-05 for orbital     78a         
          max. resid. fock norm         =  1.924D-05 for orbital     78a         
 mo-orthogonalization: Cholesky decomposition
          Delta Eig. =     0.0002374686 eV 
 
                                              current damping :  0.850
 ITERATION  ENERGY          1e-ENERGY        2e-ENERGY     NORM[dD(SAO)]  TOL
  16  -1079.2103364899    -5136.5048036     2215.1776857    0.791D-04 0.491D-14
          Norm of current diis error: 0.10915E-03
          max. resid. norm for Fia-block=  1.024D-05 for orbital     60a         
          max. resid. fock norm         =  1.092D-05 for orbital     60a         
          Delta Eig. =     0.0001524938 eV 
 
                                              current damping :  0.900
 ITERATION  ENERGY          1e-ENERGY        2e-ENERGY     NORM[dD(SAO)]  TOL
  17  -1079.2103364910    -5136.5048013     2215.1776834    0.120D-04 0.491D-14
          Norm of current diis error: 0.62721E-04
          max. resid. norm for Fia-block=  5.774D-06 for orbital     60a         
          max. resid. fock norm         =  6.063D-06 for orbital     60a         
          Delta Eig. =     0.0000730351 eV 
 
                                              current damping :  0.950
 ITERATION  ENERGY          1e-ENERGY        2e-ENERGY     NORM[dD(SAO)]  TOL
  18  -1079.2103364913    -5136.5048050     2215.1776870    0.199D-04 0.491D-14
          Norm of current diis error: 0.37504E-04
          max. resid. norm for Fia-block=  3.583D-06 for orbital     60a         
          max. resid. fock norm         =  3.780D-06 for orbital     60a         
          Delta Eig. =     0.0000463594 eV 

 ENERGY CONVERGED !

 
                                              current damping :  0.800
 ITERATION  ENERGY          1e-ENERGY        2e-ENERGY     NORM[dD(SAO)]  TOL
  19  -1079.2103364914    -5136.5048057     2215.1776877    0.233D-04 0.491D-14
          max. resid. norm for Fia-block=  1.011D-06 for orbital     75a         
          max. resid. fock norm         =  1.041D-06 for orbital     60a         

 convergence criteria satisfied after    19 iterations


                  ------------------------------------------ 
                 |  total energy      =  -1079.21033649141  |
                  ------------------------------------------ 
                 :  kinetic energy    =   1077.73413338278  :
                 :  potential energy  =  -2156.94446987419  :
                 :  virial theorem    =      1.99863214514  :
                 :  wavefunction norm =      1.00000000000  :
                  .......................................... 


 <geterg> : there is no data group $energy 


 <skperg> : $end is missing 


 orbitals $scfmo  will be written to file mos

    irrep                 74a         75a         76a         77a         78a   
 eigenvalues H         -0.40770    -0.40221    -0.39044    -0.30362    -0.28325
            eV         -11.0942    -10.9447    -10.6244     -8.2619     -7.7076
 occupation              2.0000      2.0000      2.0000      2.0000      2.0000 

    irrep                 79a         80a         81a         82a         83a   
 eigenvalues H          0.05699     0.07184     0.08606     0.09079     0.10066
            eV           1.5508      1.9550      2.3419      2.4705      2.7392
 
 
 
 
 ==============================================================================
                           electrostatic moments
 ==============================================================================

 reference point for electrostatic moments:    0.00000   0.00000   0.00000

 
              nuc           elec       ->  total
 ------------------------------------------------------------------------------
                          charge      
 ------------------------------------------------------------------------------
         156.000000    -156.000000       0.000000
 
 ------------------------------------------------------------------------------
                       dipole moment  
 ------------------------------------------------------------------------------
   x    1951.799857   -1955.542579      -3.742722
   y    1890.623753   -1888.514674       2.109079
   z   12972.436999  -12968.839408       3.597592
 
   | dipole moment | =     5.6035 a.u. =    14.2426 debye 
 
 ------------------------------------------------------------------------------
                     quadrupole moment
 ------------------------------------------------------------------------------
  xx   25177.709114  -25367.773856    -190.064742
  yy   24281.506531  -24308.533670     -27.027139
  zz 1082298.343319-1081777.629749     520.713570
  xy   23500.190262  -23506.671041      -6.480778
  xz  162139.925335 -162410.482246    -270.556911
  yz  156097.853129 -155905.590621     192.262509
 
     1/3  trace=     101.207230
     anisotropy=     864.018068
 
 ==============================================================================
 


    ------------------------------------------------------------------------
         total  cpu-time :   2 days  3 hours 45 minutes and 13 seconds
         total wall-time :  1 hours 55 minutes and 33 seconds
    ------------------------------------------------------------------------

   ****  dscf : all done  ****


    2019-03-28 13:14:26.540 

