STARTING ridft ON 32 PROCESSORS!
RUNNING PROGRAM /sopt/TURBOMOLE/7.3-official/bin/em64t-unknown-linux-gnu_smp/ridft_mpi.
           SMPCPUS    set: Shared-memory Parallelization with  32 CPUs.

           SMP Parallelization Reference:
           C. van Wullen, J. Comput. Chem. 32 (2011) 1195--1201
 operating system is UNIX !

 ridft (c-15-41) : TURBOMOLE V7.3 ( 22118 ) 1 Jul 2018 at 20:38:15
 Copyright (C) 2018 TURBOMOLE GmbH, Karlsruhe


    2019-03-12 12:39:47.605 



                                  r i d f t

                        DFT program with RI approximation 
                                for coulomb part 




                                                 
                                 References:     
                                                 
          TURBOMOLE:                             
              R. Ahlrichs, M. Baer, M. Haeser, H. Horn, and
              C. Koelmel
              Electronic structure calculations on workstation
              computers: the program system TURBOMOLE
              Chem. Phys. Lett. 162: 165 (1989)
          Density Functional:                              
              O. Treutler and R. Ahlrichs                      
              Efficient Molecular Numerical Integration Schemes
              J. Chem. Phys. 102: 346 (1995)                   
          Parallel Version:                                
              Performance of parallel TURBOMOLE for Density    
              Functional Calculations                          
              M. v. Arnim and R. Ahlrichs                      
              J. Comp. Chem. 19: 1746 (1998)                   
          RI-J Method:                                     
              Auxiliary Basis Sets to approximate Coulomb      
              Potentials                                       
              Chem. Phys. Lett. 240: 283 (1995)                
              K. Eichkorn, O. Treutler, H. Oehm, M. Haeser     
              and R. Ahlrichs                                  
              Chem. Phys. Lett. 242: 652 (1995)                
                                                           
              Auxiliary Basis Sets for Main Row Atoms and their
              Use to approximate Coulomb Potentials            
              K. Eichkorn, F. Weigend, O. Treutler and         
              R. Ahlrichs                                      
              Theo. Chem. Acc. 97: 119 (1997)                   
                                                           
              Accurate Coulomb-fitting basis sets for H to Rn 
              F. Weigend                                        
              Phys. Chem. Chem. Phys. 8: 1057 (2006)            
                                                           
          Multipole accelerated RI-J (MARI-J):             
              Fast evaluation of the Coulomb potential for     
              electron densities using multipole accelerated   
              resolution of identity approximation             
              M. Sierka, A. Hogekamp and R. Ahlrichs           
              J. Chem. Phys. 118: 9136 (2003)                  
          RI-JK Method:                                     
              A fully direct RI-HF algorithm: Implementation,
              optimised auxiliary basis sets, demonstration of
              accuracy and efficiency                         
              F. Weigend                                      
              Phys. Chem. Chem. Phys. 4: 4285 (2002)           
          Two-component HF and DFT with spin-orbit coupling:  
              Self-consistent treatment of spin-orbit         
              interactions with efficient Hartree-Fock and    
              density functional methods                      
              M. K. Armbruster, F. Weigend, C. van Wüllen and 
              W. Klopper                                      
              Phys. Chem. Chem. Phys. 10: 1748 (2008)         
          Two-component difference density and DIIS algorithm 
              Efficient two-component self-consistent field   
              procedures and gradients: implementation in     
              TURBOMOLE and application to Au20-              
              A. Baldes, F. Weigend                           
              Mol. Phys. 111: 2617 (2013)                     
          Relativistic all-electron 2c calculations           
              An efficient implementation of two-component    
              relativistic exact-decoupling methods for large 
              molecules                                       
              D. Peng, N. Middendorf, F. Weigend, M. Reiher   
              J. Chem. Phys. 138: 184105 (2013)               
          Finite nucleus model and SNSO approximation         
              Efficient implementation of one- and two-       
              component analytical energy gradients in exact  
              two-component theory                            
              Y. J. Franzke, N. Middendorf, F. Weigend        
              J. Chem. Phys. 148: 104110 (2018)               
                                         




              +--------------------------------------------------+
              |      general information about current run       |
              +--------------------------------------------------+

 
 PBE functional
 exchange:    LDA + PBE
 correlation: LDA (PW) + PBE
 A DFT calculation using the RI-J approximation will be carried out.
 Allocatable memory for RI due to $ricore (MB):                  8000


              +--------------------------------------------------+
              | Atomic coordinate, charge and isotop information |
              +--------------------------------------------------+

                    atomic coordinates            atom    charge  isotop
         -1.36873741   -1.33213565    4.31588478    c      6.000     0
          0.63365972   -1.19042022    3.87995234    h      1.000     0
         -1.79844605   -3.23519151    4.96176218    h      1.000     0
         -1.83233107   -0.04172430    5.84636928    h      1.000     0
         -3.05178489   -0.73213518    2.08638798    c      6.000     0
         -5.36176507   -0.78427808    2.25658391    o      8.000     0
         -1.80170339   -0.14438344   -0.07713824    n      7.000     0
          0.10168352   -0.14280001   -0.06923998    h      1.000     0
         -3.13340021    0.47260838   -2.37832061    c      6.000     0
         -5.14075800    0.33437653   -1.97788696    h      1.000     0
         -2.70288461    2.38665349   -3.00106244    h      1.000     0
         -2.65624839   -0.83967180   -3.89015920    h      1.000     0
          3.97367278   -0.11037319   -0.29305247    o      8.000     0
          5.04132512   -1.45766972   -0.86979576    h      1.000     0
          5.06924457    1.33374336   -0.24789086    h      1.000     0
 
       center of nuclear mass  :   -1.55291118   -0.42069004    0.91466919
       center of nuclear charge:   -1.44649904   -0.41141146    0.87888091

              +--------------------------------------------------+
              |               basis set information              |
              +--------------------------------------------------+

              we will work with the 1s 3p 5d 7f 9g ... basis set
              ...i.e. with spherical basis functions...

   type   atoms  prim   cont   basis
   ---------------------------------------------------------------------------
    c        3     77     57   def2-QZVP   [7s4p3d2f1g|15s8p3d2f1g]
    h        9     33     30   def2-QZVP   [4s3p2d1f|7s3p2d1f]
    o        2     77     57   def2-QZVP   [7s4p3d2f1g|15s8p3d2f1g]
    n        1     77     57   def2-QZVP   [7s4p3d2f1g|15s8p3d2f1g]
   ---------------------------------------------------------------------------
   total:   15    759    612
   ---------------------------------------------------------------------------

   total number of primitive shells          :  100
   total number of contracted shells         :  192
   total number of cartesian basis functions :  747
   total number of SCF-basis functions       :  612


 integral neglect threshold       :  0.45E-11
 integral storage threshold THIZE :  0.10E-04
 integral storage threshold THIME :         5

 RI-J AUXILIARY BASIS SET information:

              we will work with the 1s 3p 5d 7f 9g ... basis set
              ...i.e. with spherical basis functions...

   type   atoms  prim   cont   basis
   ---------------------------------------------------------------------------
    c        3     70     49   def2-QZVP   [6s4p3d1f1g|12s5p4d2f1g]
    h        9     16     11   def2-QZVP   [3s1p1d|5s2p1d]
    o        2     70     49   def2-QZVP   [6s4p3d1f1g|12s5p4d2f1g]
    n        1     70     49   def2-QZVP   [6s4p3d1f1g|12s5p4d2f1g]
   ---------------------------------------------------------------------------
   total:   15    564    393
   ---------------------------------------------------------------------------

   total number of primitive shells          :   80
   total number of contracted shells         :  135
   total number of cartesian basis functions :  474
   total number of SCF-basis functions       :  393


 symmetry group of the molecule :   c1 

 the group has the following generators :
   c1(z)

    1 symmetry operations found

 there are 1 real representations :   a   

 maximum number of shells which are related by symmetry :  1


    mo occupation :
   irrep   mo's   occupied
    a      612       25
 
 number of basis functions   :                    612
 number of occupied orbitals :                     25
 
  
           ------------------
           density functional
           ------------------
 PBE functional
 exchange:    LDA + PBE
 correlation: LDA (PW) + PBE

 iterations will be done with small grid
  
 spherical integration : Lebedev's spherical grid
 spherical gridsize    :                     4
    i.e. gridpoints    :                   434
 value for diffuse not defined
 radial integration    : Chebyshev 2nd kind (scaling 3)
 radial gridsize       :                     6
 integration cells     :                    15
 partition function    : becke
 partition sharpness   :                     3
  

 biggest AO integral is expected to be     6.990327543
  
           ------------------------
               RI-J - INFORMATION
           ------------------------
 Contributions to RI integral batches: 
  neglected integral batches:                  3882
  direct contribution:                            0
  memory contribution:                 14646
 Memory core needed for (P|Q) and Cholesky      2 MByte
 Memory core minimum needed except of (P|Q)     2 MByte
 Total minimum memory core needed (sum)         3 MByte
  
 ****************************************
 Memory allocated for RI-J   786 MByte
 ****************************************
                                            

          ------------------------
          nuclear repulsion energy  :   243.511940059    
          ------------------------

   .------------------------------.
   |            DFT-D4            |
   |          ==========          |
   |  E. Caldeweyher,  S. Grimme  |
   |   University of Bonn, MCTC   |
   |     02/2018, Version 1.0     |
   '------------------------------'
  This code comes without any warranty

 Cite this work as:
   E. Caldeweyher, C. Bannwarth, and S. Grimme,
   J. Chem. Phys., 2017, 147, 034112.
   E. Caldeweyher, S. Ehlert, and S. Grimme,
   J. Chem. Phys., in preparation.

 Contributions:
   P. Shushkov - GBSA(H2O)
   S. Ehlert   - MBD, DFA fit

number of atoms            :    15
number of electrons        :    38
charge                     :  0
spin                       : 0.0
 Found param_gfn2.xtb file !
========================================================================
    G F N  parametrization, version 3
   Geometries Frequencies Non-covalent interactions
 /sopt/TURBOMOLE/7.3-official/parameter/param_gfn2.xtb
========================================================================
 method parameters:
------------------------------------------------------------------------
k(s)        :               1.8500
k(p)        :               2.2300
k(d)        :               2.2300
k(f)        :               2.0000
kEN (H0ij)  :              -2.0000
D3 a1       :               0.5200
D3 a2       :               5.0000
D3 s8       :               2.7000
D3atm       :               5.0000
alphaj      :               2.0000
AESdamp     :               4.0000
AESrad      :               3.0000
expscalexp  :               5.0000
------------------------------------------------------------------------
------------------------------------------------------------------------
 xTB basis
------------------------------------------------------------------------
  Z AO/shell   Hii/eV     exponent
  1     Wed Apr 25 08:07:45 CEST 2018   EN: 2.200 GM2: 0.406  GM3: 0.0800  RAES: 1.40
     1s    -10.707211    1.230000
  6     Wed Apr 25 08:07:45 CEST 2018   EN: 2.550 GM2: 0.538  GM3: 0.1500  RAES: 3.00
     2s    -13.970922    2.096432
     2p    -10.063292    1.800000
  7     Wed Apr 25 08:07:45 CEST 2018   EN: 3.040 GM2: 0.461  GM3:-0.0640  RAES: 1.90
     2s    -16.686243    2.339881
     2p    -12.523956    2.014332
  8     Wed Apr 25 08:07:45 CEST 2018   EN: 3.440 GM2: 0.452  GM3:-0.0517  RAES: 1.80
     2s    -20.229985    2.439742
     2p    -15.503117    2.137023
------------------------------------------------------------------------
 DFT-D4 reference setup
------------------------------------------------------------------------
 C      q(ref)        CN(ref)   cov. CN(ref)  alpha(AIM,ref)
     0.0000000      0.0000000      0.0000000     12.3555336
    -0.1299310      0.9367838      0.9179641     12.6203061
    -0.0788263      1.9884028      1.9096951      9.3103249
    -0.0767301      2.9881158      2.8401678      8.8356702
    -0.0945886      3.9165802      3.7567914      6.6924619
    -0.0285648      3.3673832      3.0308559      8.9184424
     0.0506204      0.9979550      0.8555886      7.7402501
 H      q(ref)        CN(ref)   cov. CN(ref)  alpha(AIM,ref)
     0.0000000      0.0000000      0.0000000      5.0540161
     0.0000000      0.8115055      0.8943405      2.7207580
 O      q(ref)        CN(ref)   cov. CN(ref)  alpha(AIM,ref)
     0.0000000      0.0000000      0.0000000      5.1967092
    -0.3306800      0.9547795      0.8033980      6.0646315
    -0.5637321      1.9239773      1.6098510      6.6505011
     0.0000000      0.9835639      0.9794547      5.1987934
 N      q(ref)        CN(ref)   cov. CN(ref)  alpha(AIM,ref)
     0.0000000      0.0000000      0.0000000      7.5385089
    -0.1797353      0.9622367      0.8575417      8.1244983
    -0.1525504      2.0397432      1.8555113      7.4399298
    -0.4289141      2.9186070      2.5786982      8.2914891
     0.0000000      0.9992288      0.9808497      5.8062716
 no old-style atom pair restraing (fixing) potential
------------------------------------------------------------------------
 SCC calculation
------------------------------------------------------------------------

------------------------------------------------------------------------
 Dispersion Energy Calculation
 * damping parameters for pbe-D4
 s6       :    1.0000
 s8       :    0.9516
 a1       :    0.4044
 a2       :    4.6501
========================================================================
 Edisp  /kcal,au:    -5.9013  -0.00940425
------------------------------------------------------------------------
 E(2)   /kcal,au:    -5.9192  -0.00943291
 Emany  /kcal,au:     0.0180   0.00002866
 Eresp  /kcal,au:     0.0000   0.00000000
========================================================================
 nuclear repulsion energy                  =     243.511940059
 empirical dispersive energy correction    =      -0.009404250
 nuclear repulsion + dispersion correction =     243.502535809


         -----------------
         -S,T+V- integrals
         -----------------

 1e-integrals will be neglected if expon. factor < 0.447384E-12
 Difference densities >>NOT<< switched on in parallel ridft!

 DIIS switched on: error vector is FDS-SDF
 Max. Iterations for DIIS is     :   4
 DIIS matrix (see manual) 
    Scaling factor of diagonals  :  1.200
    threshold for scaling factor :  0.000

 scf convergence criterion : increment of total energy < .1000000D-06
                  and increment of one-electron energy < .1000000D-03

  MOs are in ASCII format !


 automatic virtual orbital shift switched on 
      shift if e(lumo)-e(homo) < 0.10000000    


 reading orbital data $scfmo  from file mos
 orbital characterization : expanded
 mo provided and orthogonalized by Cholesky decomposition

 DSCF restart information will be dumped onto file mos


 Starting SCF iterations

          Overall gridpoints after grid construction =         37657

 ITERATION  ENERGY          1e-ENERGY        2e-ENERGY     NORM[dD(SAO)]  TOL
   1  -323.36803580473    -921.06976130     354.19918969    0.000D+00 0.446D-11
                            Exc = -43.1152608840     Coul =  397.314450575    
                              N = 50.000183615    
                            current damping = 0.700
 
          max. resid. norm for Fia-block=  8.693D-01 for orbital      8a         
          max. resid. fock norm         =  6.284D+01 for orbital    503a         

 ITERATION  ENERGY          1e-ENERGY        2e-ENERGY     NORM[dD(SAO)]  TOL
   2  -324.51153497923    -923.44932411     355.43525332    0.000D+00 0.446D-11
                            Exc = -43.1116366466     Coul =  398.546889967    
                              N = 50.000121431    
                            current damping = 0.650
 
          Norm of current diis error:  2.9741    
          max. resid. norm for Fia-block=  1.616D-01 for orbital      2a         
          max. resid. fock norm         =  3.122D-01 for orbital    523a         

 ITERATION  ENERGY          1e-ENERGY        2e-ENERGY     NORM[dD(SAO)]  TOL
   3  -324.67908119463    -924.95402732     356.77241031    0.000D+00 0.446D-11
                            Exc = -43.3499502492     Coul =  400.122360564    
                              N = 50.000081694    
                            current damping = 0.550
 
          Norm of current diis error:  1.4076    
          max. resid. norm for Fia-block=  6.486D-02 for orbital      2a         
          max. resid. fock norm         =  6.877D-02 for orbital      2a         

 ITERATION  ENERGY          1e-ENERGY        2e-ENERGY     NORM[dD(SAO)]  TOL
   4  -324.73081182890    -924.54922607     356.31587844    0.000D+00 0.446D-11
                            Exc = -43.2831138884     Coul =  399.598992324    
                              N = 50.000056453    
                            current damping = 0.600
 
          Norm of current diis error: 0.61149    
          max. resid. norm for Fia-block=  3.501D-02 for orbital      8a         
          max. resid. fock norm         =  7.053D-02 for orbital    318a         

 ITERATION  ENERGY          1e-ENERGY        2e-ENERGY     NORM[dD(SAO)]  TOL
   5  -324.73865927024    -925.03626088     356.79506580    0.000D+00 0.446D-11
                            Exc = -43.3774707398     Coul =  400.172536541    
                              N = 50.000039965    
                            current damping = 0.650
 
          Norm of current diis error: 0.35843    
          max. resid. norm for Fia-block=  1.204D-02 for orbital     25a         
          max. resid. fock norm         =  1.426D-02 for orbital    611a         
          mo-orthogonalization: Cholesky decomposition

 ITERATION  ENERGY          1e-ENERGY        2e-ENERGY     NORM[dD(SAO)]  TOL
   6  -324.74240025144    -925.15008088     356.90514482    0.000D+00 0.446D-11
                            Exc = -43.3818272209     Coul =  400.286972040    
                              N = 50.000036734    
                            current damping = 0.500
 
          Norm of current diis error: 0.10735    
          max. resid. norm for Fia-block=  4.390D-03 for orbital     24a         
          max. resid. fock norm         =  6.024D-03 for orbital     24a         

 ITERATION  ENERGY          1e-ENERGY        2e-ENERGY     NORM[dD(SAO)]  TOL
   7  -324.74273519684    -924.96430365     356.71903265    0.000D+00 0.446D-11
                            Exc = -43.3624170012     Coul =  400.081449649    
                              N = 50.000032870    
                            current damping = 0.550
 
          Norm of current diis error: 0.48460E-01
          max. resid. norm for Fia-block=  1.599D-03 for orbital      8a         
          max. resid. fock norm         =  2.646D-03 for orbital    318a         

 ITERATION  ENERGY          1e-ENERGY        2e-ENERGY     NORM[dD(SAO)]  TOL
   8  -324.74278947509    -925.02369369     356.77836840    0.000D+00 0.446D-11
                            Exc = -43.3698722337     Coul =  400.148240636    
                              N = 50.000032270    
                            current damping = 0.600
 
          Norm of current diis error: 0.11113E-01
          max. resid. norm for Fia-block=  5.879D-04 for orbital      8a         
          max. resid. fock norm         =  9.261D-04 for orbital    591a         

 ITERATION  ENERGY          1e-ENERGY        2e-ENERGY     NORM[dD(SAO)]  TOL
   9  -324.74279250728    -925.04100116     356.79567285    0.000D+00 0.446D-11
                            Exc = -43.3721791091     Coul =  400.167851955    
                              N = 50.000032006    
                            current damping = 0.450
 
          Norm of current diis error: 0.56530E-02
          max. resid. norm for Fia-block=  2.895D-04 for orbital     25a         
          max. resid. fock norm         =  3.118D-04 for orbital     24a         

 ITERATION  ENERGY          1e-ENERGY        2e-ENERGY     NORM[dD(SAO)]  TOL
  10  -324.74279276249    -925.03756024     356.79223167    0.000D+00 0.446D-11
                            Exc = -43.3715293846     Coul =  400.163761050    
                              N = 50.000031898    
                            current damping = 0.500
 
          Norm of current diis error: 0.52928E-02
          max. resid. norm for Fia-block=  1.921D-04 for orbital     24a         
          max. resid. fock norm         =  2.975D-04 for orbital    611a         
          mo-orthogonalization: Cholesky decomposition

 ITERATION  ENERGY          1e-ENERGY        2e-ENERGY     NORM[dD(SAO)]  TOL
  11  -324.74279346216    -925.03639057     356.79106130    0.000D+00 0.446D-11
                            Exc = -43.3716792413     Coul =  400.162740539    
                              N = 50.000031819    
                            current damping = 0.350
 
          Norm of current diis error: 0.19197E-02
          max. resid. norm for Fia-block=  8.023D-05 for orbital     12a         
          max. resid. fock norm         =  1.150D-04 for orbital    612a         

 ITERATION  ENERGY          1e-ENERGY        2e-ENERGY     NORM[dD(SAO)]  TOL
  12  -324.74279353629    -925.03900853     356.79367918    0.000D+00 0.446D-11
                            Exc = -43.3719524284     Coul =  400.165631613    
                              N = 50.000031824    
                            current damping = 0.400
 
          Norm of current diis error: 0.38329E-03
          max. resid. norm for Fia-block=  1.918D-05 for orbital     22a         
          max. resid. fock norm         =  5.508D-05 for orbital    612a         

 ENERGY CONVERGED !

          Overall gridpoints after grid construction =        140884

 ITERATION  ENERGY          1e-ENERGY        2e-ENERGY     NORM[dD(SAO)]  TOL
  13  -324.74271493825    -925.03920436     356.79395361    0.000D+00 0.446D-11
                            Exc = -43.3718867828     Coul =  400.165840398    
                              N = 50.000000796    
                            current damping = 0.250
 
          Norm of current diis error: 0.21958E-03
          max. resid. norm for Fia-block=  5.460D-06 for orbital     25a         
          max. resid. fock norm         =  1.319D-05 for orbital    611a         

 End of SCF iterations

   convergence criteria satisfied after    13 iterations


                  ------------------------------------------ 
                 |  total energy      =   -324.74271493825  |
                  ------------------------------------------ 
                 :  kinetic energy    =    323.54063810903  :
                 :  potential energy  =   -648.28335304728  :
                 :  virial theorem    =      1.99629837168  :
                 :  wavefunction norm =      1.00000000000  :
                  .......................................... 


 <geterg> : there is no data group $energy 


 <skperg> : $end is missing 


 orbitals $scfmo  will be written to file mos

    irrep                 21a         22a         23a         24a         25a   
 eigenvalues H         -0.32394    -0.29877    -0.29805    -0.20606    -0.19231
            eV          -8.8148     -8.1300     -8.1104     -5.6073     -5.2330
 occupation              2.0000      2.0000      2.0000      2.0000      2.0000 

    irrep                 26a         27a         28a         29a         30a   
 eigenvalues H         -0.03934     0.00386     0.02131     0.03063     0.03153
            eV          -1.0706      0.1049      0.5799      0.8335      0.8579
 
 
 
 
 ==============================================================================
                           electrostatic moments
 ==============================================================================

 reference point for electrostatic moments:    0.00000   0.00000   0.00000

 
              nuc           elec       ->  total
 ------------------------------------------------------------------------------
                          charge      
 ------------------------------------------------------------------------------
          50.000000     -50.000000      -0.000000
 
 ------------------------------------------------------------------------------
                       dipole moment  
 ------------------------------------------------------------------------------
   x     -72.324952      74.758187       2.433235
   y     -20.570573      20.755276       0.184703
   z      43.944045     -44.677590      -0.733545
 
   | dipole moment | =     2.5481 a.u. =     6.4766 debye 
 
 ------------------------------------------------------------------------------
                     quadrupole moment
 ------------------------------------------------------------------------------
  xx     603.966468    -635.454370     -31.487902
  yy      42.690258     -69.544480     -26.854222
  zz     316.011456    -344.278657     -28.267200
  xy      46.012919     -47.390615      -1.377696
  xz    -128.284384     131.507219       3.222835
  yz     -88.752067      89.213713       0.461645
 
     1/3  trace=     -28.869775
     anisotropy=       7.376564
 
 ==============================================================================
 


    ------------------------------------------------------------------------
         total  cpu-time :  2 minutes and 59 seconds
         total wall-time :  43.88 seconds
    ------------------------------------------------------------------------

   ****  ridft : all done  ****


    2019-03-12 12:40:31.440 

