           Doing BLAS/Lapack in the master proc. with  8 CPUs.
           SMPCPUS    set: Shared-memory Parallelization with   8 CPUs.

           SMP Parallelization Reference:
           C. van Wullen, J. Comput. Chem. 32 (2011) 1195--1201
 operating system is UNIX !

 ridft (c-18-81.gp.local) : TURBOMOLE V7.2 ( 21454 ) 4 Oct 2017 at 12:48:15
 Copyright (C) 2017 TURBOMOLE GmbH, Karlsruhe


    2018-04-24 21:15:17.201 



                                  r i d f t

                        DFT program with RI approximation 
                                for coulomb part 




                                                 
                                 References:     
                                                 
          TURBOMOLE:                             
              R. Ahlrichs, M. Baer, M. Haeser, H. Horn, and
              C. Koelmel
              Electronic structure calculations on workstation
              computers: the program system TURBOMOLE
              Chem. Phys. Lett. 162: 165 (1989)
          Density Functional:                              
              O. Treutler and R. Ahlrichs                      
              Efficient Molecular Numerical Integration Schemes
              J. Chem. Phys. 102: 346 (1995)                   
          Parallel Version:                                
              Performance of parallel TURBOMOLE for Density    
              Functional Calculations                          
              M. v. Arnim and R. Ahlrichs                      
              J. Comp. Chem. 19: 1746 (1998)                   
          RI-J Method:                                     
              Auxiliary Basis Sets to approximate Coulomb      
              Potentials                                       
              Chem. Phys. Lett. 240: 283 (1995)                
              K. Eichkorn, O. Treutler, H. Oehm, M. Haeser     
              and R. Ahlrichs                                  
              Chem. Phys. Lett. 242: 652 (1995)                
                                                           
              Auxiliary Basis Sets for Main Row Atoms and their
              Use to approximate Coulomb Potentials            
              K. Eichkorn, F. Weigend, O. Treutler and         
              R. Ahlrichs                                      
              Theo. Chem. Acc. 97: 119 (1997)                   
                                                           
              Accurate Coulomb-fitting basis sets for H to Rn 
              F. Weigend                                        
              Phys. Chem. Chem. Phys. 8: 1057 (2006)            
                                                           
          Multipole accelerated RI-J (MARI-J):             
              Fast evaluation of the Coulomb potential for     
              electron densities using multipole accelerated   
              resolution of identity approximation             
              M. Sierka, A. Hogekamp and R. Ahlrichs           
              J. Chem. Phys. 118: 9136 (2003)                  
          RI-JK Method:                                     
              A fully direct RI-HF algorithm: Implementation,
              optimised auxiliary basis sets, demonstration of
              accuracy and efficiency                         
              F. Weigend                                      
              Phys. Chem. Chem. Phys. 4: 4285 (2002)           
          Two-component HF and DFT with spin-orbit coupling:  
              Self-consistent treatment of spin-orbit         
              interactions with efficient Hartree-Fock and    
              density functional methods                      
              M. K. Armbruster, F. Weigend, C. van Wüllen and 
              W. Klopper                                      
              Phys. Chem. Chem. Phys. 10: 1748 (2008)         
          Relativistic all-electron 2c calculations           
              An efficient implementation of two-component    
              relativistic exact-decoupling methods for large 
              molecules                                       
              D. Peng, N. Middendorf, F. Weigend, M. Reiher   
              J. Chem. Phys. 138, 184105 (2013)               
                                         




              +--------------------------------------------------+
              |      general information about current run       |
              +--------------------------------------------------+

 

 DENSITY CONVERGENCE CHECK SWITCHED ON !
 SCF CONVERGENCE IF RMS(delta[D]) <     0.1000000000E-06

 PBE functional
 exchange:    LDA + PBE
 correlation: LDA (PW) + PBE
 A DFT calculation using the RI-J approximation will be carried out.
 Allocatable memory for RI due to $ricore (MB):                   500


              +--------------------------------------------------+
              | Atomic coordinate, charge and isotop information |
              +--------------------------------------------------+

                    atomic coordinates            atom    charge  isotop
          3.07971469    0.95055591    0.51043750    c      6.000     0
          3.10212411    2.75756002   -0.46880866    h      1.000     0
          4.37531918   -0.34686812   -0.41117861    h      1.000     0
          3.72227981    1.22711302    2.44526980    h      1.000     0
          0.49478276   -0.25107132    0.59443642    c      6.000     0
          0.18756034   -2.47481562    1.15620995    o      8.000     0
         -1.46170742    1.32755556    0.04171741    n      7.000     0
         -1.07527567    3.14933587   -0.31334369    h      1.000     0
         -4.06293413    0.50260791    0.17962467    c      6.000     0
         -4.05296672   -1.54845568    0.19069624    h      1.000     0
         -4.98990345    1.16373181    1.89653750    h      1.000     0
         -5.11689448    1.17304958   -1.45180207    h      1.000     0
         -0.08646646    0.97887259    7.13601528    c      6.000     0
         -0.09569128    2.38137783    8.62111811    h      1.000     0
         -1.31201575    1.29590937    5.53223577    h      1.000     0
          1.36580754   -1.07518777    7.26793633    c      6.000     0
          2.58525720   -1.39989118    8.87444517    h      1.000     0
          1.35614729   -2.46451467    5.77068878    h      1.000     0
 
       center of nuclear mass  :   -0.09378948   -0.00268911    2.35739865
       center of nuclear charge:   -0.09799398    0.06281028    2.39925466

              +--------------------------------------------------+
              |               basis set information              |
              +--------------------------------------------------+

              we will work with the 1s 3p 5d 7f 9g ... basis set
              ...i.e. with spherical basis functions...

   type   atoms  prim   cont   basis
   ---------------------------------------------------------------------------
    c        5     77     57   def2-QZVP   [7s4p3d2f1g|15s8p3d2f1g]
    h       11     33     30   def2-QZVP   [4s3p2d1f|7s3p2d1f]
    o        1     77     57   def2-QZVP   [7s4p3d2f1g|15s8p3d2f1g]
    n        1     77     57   def2-QZVP   [7s4p3d2f1g|15s8p3d2f1g]
   ---------------------------------------------------------------------------
   total:   18    902    729
   ---------------------------------------------------------------------------

   total number of primitive shells          :  100
   total number of contracted shells         :  229
   total number of cartesian basis functions :  889
   total number of SCF-basis functions       :  729


 integral neglect threshold       :  0.37E-13
 integral storage threshold THIZE :  0.10E-04
 integral storage threshold THIME :         5

 RI-J AUXILIARY BASIS SET information:

              we will work with the 1s 3p 5d 7f 9g ... basis set
              ...i.e. with spherical basis functions...

   type   atoms  prim   cont   basis
   ---------------------------------------------------------------------------
    c        5     70     49   def2-QZVP   [6s4p3d1f1g|12s5p4d2f1g]
    h       11     16     11   def2-QZVP   [3s1p1d|5s2p1d]
    o        1     70     49   def2-QZVP   [6s4p3d1f1g|12s5p4d2f1g]
    n        1     70     49   def2-QZVP   [6s4p3d1f1g|12s5p4d2f1g]
   ---------------------------------------------------------------------------
   total:   18    666    464
   ---------------------------------------------------------------------------

   total number of primitive shells          :   80
   total number of contracted shells         :  160
   total number of cartesian basis functions :  559
   total number of SCF-basis functions       :  464


 symmetry group of the molecule :   c1 

 the group has the following generators :
   c1(z)

    1 symmetry operations found

 there are 1 real representations :   a   

 maximum number of shells which are related by symmetry :  1


    mo occupation :
   irrep   mo's   occupied
    a      729       28
 
 number of basis functions   :                    729
 number of occupied orbitals :                     28
 
  
           ------------------
           density functional
           ------------------
 PBE functional
 exchange:    LDA + PBE
 correlation: LDA (PW) + PBE

 iterations will be done with small grid
  
 spherical integration : Lebedev's spherical grid
 spherical gridsize    :                     5
    i.e. gridpoints    :                   590
 value for diffuse not defined
 radial integration    : Chebyshev 2nd kind (scaling 3)
 radial gridsize       :                     8
 integration cells     :                    18
 partition function    : becke
 partition sharpness   :                     3
  

 biggest AO integral is expected to be     6.990327543
  
           ------------------------
               RI-J - INFORMATION
           ------------------------
 Contributions to RI integral batches: 
  neglected integral batches:                  5694
  direct contribution:                        10300
  memory contribution:                 10341
 Memory core needed for (P|Q) and Cholesky      2 MByte
 Memory core minimum needed except of (P|Q)     1 MByte
 Total minimum memory core needed (sum)         3 MByte
  
 ****************************************
 Memory allocated for RI-J   418 MByte
 ****************************************
                                            

          ------------------------
          nuclear repulsion energy  :   300.387895428    
          ------------------------


         -----------------
         -S,T+V- integrals
         -----------------

 1e-integrals will be neglected if expon. factor < 0.375924E-14
 Difference densities >>NOT<< switched on in parallel ridft!

 DIIS switched on: error vector is FDS-SDF
 Max. Iterations for DIIS is     :   4
 DIIS matrix (see manual) 
    Scaling factor of diagonals  :  1.200
    threshold for scaling factor :  0.000

 scf convergence criterion : increment of total energy < .1000000D-08
                  and increment of one-electron energy < .1000000D-05

  MOs are in ASCII format !


 automatic virtual orbital shift switched on 
      shift if e(lumo)-e(homo) < 0.10000000    


 reading orbital data $scfmo  from file mos
 orbital characterization : expanded
 mo provided and orthogonalized by Cholesky decomposition

 DSCF restart information will be dumped onto file mos


 Starting SCF iterations

          Overall gridpoints after grid construction =         82211

 ITERATION  ENERGY          1e-ENERGY        2e-ENERGY     RMS[dD(SAO)]   TOL
   1  -325.40250623863    -1028.4848359     402.69443426    0.000D+00 0.375D-13
                            Exc = -45.4244088187     Coul =  448.118843074    
                              N = 56.000094462    
                            current damping = 0.700
 
          max. resid. norm for Fia-block=  8.016D-01 for orbital      8a         
          max. resid. fock norm         =  6.429D+01 for orbital    676a         

 ITERATION  ENERGY          1e-ENERGY        2e-ENERGY     RMS[dD(SAO)]   TOL
   2  -326.59851565418    -1034.5670963     407.58068517    0.291D-02 0.375D-13
                            Exc = -45.8693793699     Coul =  453.450064540    
                              N = 56.000081197    
                            current damping = 0.650
 
          Norm of current diis error:  3.1769    
          max. resid. norm for Fia-block=  1.629D-01 for orbital      1a         
          max. resid. fock norm         =  2.979D-01 for orbital    713a         

 ITERATION  ENERGY          1e-ENERGY        2e-ENERGY     RMS[dD(SAO)]   TOL
   3  -326.77715791130    -1036.5998400     409.43478666    0.166D-02 0.375D-13
                            Exc = -46.1808481265     Coul =  455.615634785    
                              N = 56.000072222    
                            current damping = 0.550
 
          Norm of current diis error:  1.5366    
          max. resid. norm for Fia-block=  6.517D-02 for orbital      1a         
          max. resid. fock norm         =  6.941D-02 for orbital      1a         

 ITERATION  ENERGY          1e-ENERGY        2e-ENERGY     RMS[dD(SAO)]   TOL
   4  -326.83343686404    -1036.7611844     409.53985210    0.115D-02 0.375D-13
                            Exc = -46.1880186755     Coul =  455.727870776    
                              N = 56.000074339    
                            current damping = 0.400
 
          Norm of current diis error: 0.69176    
          max. resid. norm for Fia-block=  3.625D-02 for orbital      8a         
          max. resid. fock norm         =  7.779D-02 for orbital    692a         

 ITERATION  ENERGY          1e-ENERGY        2e-ENERGY     RMS[dD(SAO)]   TOL
   5  -326.84106923014    -1037.6636157     410.43465101    0.538D-03 0.375D-13
                            Exc = -46.3280289099     Coul =  456.762679920    
                              N = 56.000070605    
                            current damping = 0.300
 
          Norm of current diis error: 0.47672    
          max. resid. norm for Fia-block=  1.451D-02 for orbital     28a         
          max. resid. fock norm         =  1.839D-02 for orbital     27a         
          mo-orthogonalization: Cholesky decomposition

 ITERATION  ENERGY          1e-ENERGY        2e-ENERGY     RMS[dD(SAO)]   TOL
   6  -326.84723214779    -1037.5788517     410.34372412    0.357D-03 0.375D-13
                            Exc = -46.3112670149     Coul =  456.654991138    
                              N = 56.000072737    
                            current damping = 0.350
 
          Norm of current diis error: 0.14113    
          max. resid. norm for Fia-block=  6.028D-03 for orbital     27a         
          max. resid. fock norm         =  8.176D-03 for orbital    689a         

 ITERATION  ENERGY          1e-ENERGY        2e-ENERGY     RMS[dD(SAO)]   TOL
   7  -326.84756337875    -1037.4427917     410.20733286    0.941D-04 0.375D-13
                            Exc = -46.2968870491     Coul =  456.504219908    
                              N = 56.000073197    
                            current damping = 0.200
 
          Norm of current diis error: 0.80596E-01
          max. resid. norm for Fia-block=  1.904D-03 for orbital     13a         
          max. resid. fock norm         =  2.676D-03 for orbital    702a         

 ITERATION  ENERGY          1e-ENERGY        2e-ENERGY     RMS[dD(SAO)]   TOL
   8  -326.84769873809    -1037.5298985     410.29430437    0.188D-04 0.375D-13
                            Exc = -46.3077550183     Coul =  456.602059388    
                              N = 56.000072897    
                            current damping = 0.250
 
          Norm of current diis error: 0.14091E-01
          max. resid. norm for Fia-block=  7.136D-04 for orbital     26a         
          max. resid. fock norm         =  1.590D-03 for orbital    727a         

 ITERATION  ENERGY          1e-ENERGY        2e-ENERGY     RMS[dD(SAO)]   TOL
   9  -326.84769814658    -1037.5386977     410.30310412    0.626D-05 0.375D-13
                            Exc = -46.3085800728     Coul =  456.611684191    
                              N = 56.000072914    
                            current damping = 0.300
 
          Norm of current diis error: 0.15554E-01
          max. resid. norm for Fia-block=  3.873D-04 for orbital     26a         
          max. resid. fock norm         =  8.302D-04 for orbital    727a         

 ITERATION  ENERGY          1e-ENERGY        2e-ENERGY     RMS[dD(SAO)]   TOL
  10  -326.84770237793    -1037.5318181     410.29622030    0.433D-05 0.375D-13
                            Exc = -46.3076312522     Coul =  456.603851550    
                              N = 56.000072962    
                            current damping = 0.350
 
          Norm of current diis error: 0.66265E-02
          max. resid. norm for Fia-block=  1.640D-04 for orbital     27a         
          max. resid. fock norm         =  2.571D-04 for orbital    697a         
          mo-orthogonalization: Cholesky decomposition

 ITERATION  ENERGY          1e-ENERGY        2e-ENERGY     RMS[dD(SAO)]   TOL
  11  -326.84770347159    -1037.5299835     410.29438457    0.204D-05 0.375D-13
                            Exc = -46.3076984017     Coul =  456.602082971    
                              N = 56.000072943    
                            current damping = 0.200
 
          Norm of current diis error: 0.11073E-02
          max. resid. norm for Fia-block=  3.790D-05 for orbital     27a         
          max. resid. fock norm         =  4.934D-05 for orbital      9a         

 ITERATION  ENERGY          1e-ENERGY        2e-ENERGY     RMS[dD(SAO)]   TOL
  12  -326.84770348396    -1037.5313432     410.29574425    0.475D-06 0.375D-13
                            Exc = -46.3077606424     Coul =  456.603504897    
                              N = 56.000072941    
                            current damping = 0.250
 
          Norm of current diis error: 0.79117E-03
          max. resid. norm for Fia-block=  2.110D-05 for orbital     27a         
          max. resid. fock norm         =  2.826D-05 for orbital    689a         

 ITERATION  ENERGY          1e-ENERGY        2e-ENERGY     RMS[dD(SAO)]   TOL
  13  -326.84770349687    -1037.5307837     410.29518476    0.219D-06 0.375D-13
                            Exc = -46.3077145794     Coul =  456.602899339    
                              N = 56.000072942    
                            current damping = 0.300
 
          Norm of current diis error: 0.20550E-03
          max. resid. norm for Fia-block=  6.001D-06 for orbital     13a         
          max. resid. fock norm         =  9.761D-06 for orbital    637a         

 DENSITY CONVERGED !


 ITERATION  ENERGY          1e-ENERGY        2e-ENERGY     RMS[dD(SAO)]   TOL
  14  -326.84770349760    -1037.5306192     410.29502030    0.694D-07 0.375D-13
                            Exc = -46.3077130768     Coul =  456.602733379    
                              N = 56.000072943    
                            current damping = 0.150
 
          Norm of current diis error: 0.84412E-04
          max. resid. norm for Fia-block=  2.469D-06 for orbital     26a         
          max. resid. fock norm         =  4.892D-06 for orbital    727a         

 DENSITY CONVERGED !


 ITERATION  ENERGY          1e-ENERGY        2e-ENERGY     RMS[dD(SAO)]   TOL
  15  -326.84770349770    -1037.5307170     410.29511805    0.246D-07 0.375D-13
                            Exc = -46.3077189685     Coul =  456.602837023    
                              N = 56.000072942    
                            current damping = 0.200
 
          Norm of current diis error: 0.50020E-04
          max. resid. norm for Fia-block=  1.546D-06 for orbital     26a         
          max. resid. fock norm         =  3.334D-06 for orbital    727a         
          mo-orthogonalization: Cholesky decomposition

 ENERGY & DENSITY CONVERGED !

          Overall gridpoints after grid construction =        271272

 ITERATION  ENERGY          1e-ENERGY        2e-ENERGY     RMS[dD(SAO)]   TOL
  16  -326.84770085581    -1037.5307021     410.29510586    0.103D-07 0.375D-13
                            Exc = -46.3077152816     Coul =  456.602821142    
                              N = 55.999992367    
                            current damping = 0.250
 
          Norm of current diis error: 0.11114E-04
          max. resid. norm for Fia-block=  2.878D-07 for orbital     26a         
          max. resid. fock norm         =  5.038D-07 for orbital    727a         

 End of SCF iterations

   convergence criteria satisfied after    16 iterations


                  ------------------------------------------ 
                 |  total energy      =   -326.84770085581  |
                  ------------------------------------------ 
                 :  kinetic energy    =    325.56445886866  :
                 :  potential energy  =   -652.41215972447  :
                 :  virial theorem    =      1.99607388400  :
                 :  wavefunction norm =      1.00000000000  :
                  .......................................... 


 <geterg> : there is no data group $energy 


 <skperg> : $end is missing 


 orbitals $scfmo  will be written to file mos

    irrep                 24a         25a         26a         27a         28a   
 eigenvalues H         -0.31451    -0.30592    -0.24119    -0.22566    -0.20983
            eV          -8.5582     -8.3245     -6.5631     -6.1404     -5.7099
 occupation              2.0000      2.0000      2.0000      2.0000      2.0000 

    irrep                 29a         30a         31a         32a         33a   
 eigenvalues H         -0.03332    -0.01448    -0.01411     0.01754     0.02806
            eV          -0.9068     -0.3941     -0.3840      0.4773      0.7637
 
 
 
 
 ==============================================================================
                           electrostatic moments
 ==============================================================================

 reference point for electrostatic moments:    0.00000   0.00000   0.00000

 
              nuc           elec       ->  total
 ------------------------------------------------------------------------------
                          charge      
 ------------------------------------------------------------------------------
          56.000000     -56.000000      -0.000000
 
 ------------------------------------------------------------------------------
                       dipole moment  
 ------------------------------------------------------------------------------
   x      -5.487663       5.289718      -0.197945
   y       3.517376      -2.186898       1.330478
   z     134.358261    -134.755843      -0.397582
 
   | dipole moment | =     1.4026 a.u. =     3.5652 debye 
 
 ------------------------------------------------------------------------------
                     quadrupole moment
 ------------------------------------------------------------------------------
  xx     305.436002    -336.211052     -30.775049
  yy     120.995574    -155.414593     -34.419019
  zz     866.250689    -900.531381     -34.280692
  xy     -28.253830      27.311292      -0.942539
  xz      90.046517     -89.043520       1.002997
  yz     -22.794444      23.890874       1.096430
 
     1/3  trace=     -33.158253
     anisotropy=       4.699278
 
 ==============================================================================
 


    ------------------------------------------------------------------------
         total  cpu-time :  7 minutes and 41 seconds
         total wall-time :  1 minutes and  5 seconds
    ------------------------------------------------------------------------

   ****  ridft : all done  ****


    2018-04-24 21:16:21.841 

