Using Slurm to start processes with PMI2
STARTING ridft ON 8 PROCESSORS!
RUNNING PROGRAM /beegfs/modfac/apps/TURBOMOLE/7.0_intel_GA/bin/em64t-unknown-linux-gnu_mpi/ridft_mpi.
PLEASE WAIT UNTIL ridft HAS FINISHED.
Look for the output in slave1.output.
  this is node-proc. number 1 running on node c-8-35.local
  the total number of node-proc. spawned is            8
  parallel platform: MPP, or cluster with fast interconnect

 ridft (c-8-35.local) : TURBOMOLE V7.0.2( ) 15 Jan 2016 at 17:47:42
 Copyright (C) 2016 TURBOMOLE GmbH, Karlsruhe


    2016-06-02 00:10:16.826 



                                  r i d f t

                        DFT program with RI approximation 
                                for coulomb part 




                                                 
                                 References:     
                                                 
          TURBOMOLE:                             
              R. Ahlrichs, M. Baer, M. Haeser, H. Horn, and
              C. Koelmel
              Electronic structure calculations on workstation
              computers: the program system TURBOMOLE
              Chem. Phys. Lett. 162: 165 (1989)
          Density Functional:                              
              O. Treutler and R. Ahlrichs                      
              Efficient Molecular Numerical Integration Schemes
              J. Chem. Phys. 102: 346 (1995)                   
          Parallel Version:                                
              Performance of parallel TURBOMOLE for Density    
              Functional Calculations                          
              M. v. Arnim and R. Ahlrichs                      
              J. Comp. Chem. 19: 1746 (1998)                   
          RI-J Method:                                     
              Auxiliary Basis Sets to approximate Coulomb      
              Potentials                                       
              Chem. Phys. Lett. 240: 283 (1995)                
              K. Eichkorn, O. Treutler, H. Oehm, M. Haeser     
              and R. Ahlrichs                                  
              Chem. Phys. Lett. 242: 652 (1995)                
                                                           
              Auxiliary Basis Sets for Main Row Atoms and their
              Use to approximate Coulomb Potentials            
              K. Eichkorn, F. Weigend, O. Treutler and         
              R. Ahlrichs                                      
              Theo. Chem. Acc. 97: 119 (1997)                   
                                                           
              Accurate Coulomb-fitting basis sets for H to Rn 
              F. Weigend                                        
              Phys. Chem. Chem. Phys. 8: 1057 (2006)            
                                                           
          Multipole accelerated RI-J (MARI-J):             
              Fast evaluation of the Coulomb potential for     
              electron densities using multipole accelerated   
              resolution of identity approximation             
              M. Sierka, A. Hogekamp and R. Ahlrichs           
              J. Chem. Phys. 118: 9136 (2003)                  
          RI-JK Method:                                     
              A fully direct RI-HF algorithm: Implementation,
              optimised auxiliary basis sets, demonstration of
              accuracy and efficiency                         
              F. Weigend                                      
              Phys. Chem. Chem. Phys. 4: 4285 (2002)           
          Two-component HF and DFT with spin-orbit coupling:  
              Self-consistent treatment of spin-orbit         
              interactions with efficient Hartree-Fock and    
              density functional methods                      
              M. K. Armbruster, F. Weigend, C. van Wüllen and 
              W. Klopper                                      
              Phys. Chem. Chem. Phys. 10: 1748 (2008)         
          Relativistic all-electron 2c calculations           
              An efficient implementation of two-component    
              relativistic exact-decoupling methods for large 
              molecules                                       
              D. Peng, N. Middendorf, F. Weigend, M. Reiher   
              J. Chem. Phys. 138, 184105 (2013)               
                                         


 


              +--------------------------------------------------+
              |      general information about current run       |
              +--------------------------------------------------+

 

 SCF run will be profiled !


 DENSITY CONVERGENCE CHECK SWITCHED ON !
 SCF CONVERGENCE IF RMS(delta[D]) <     0.1000000000E-06

 PBE functional
 exchange:    LDA + PBE
 correlation: LDA (PW) + PBE
 A DFT calculation using the RI-J approximation will be carried out.
 Allocatable memory for RI due to $ricore (MB):        5000


              +--------------------------------------------------+
              | Atomic coordinate, charge and isotop information |
              +--------------------------------------------------+

                    atomic coordinates            atom    charge  isotop
          5.15645790    3.55640789  -13.99529284    c      0.000     0
          5.39945779    1.43999021  -15.54137228    c      0.000     0
          4.90799671   -0.94331349  -14.53847572    c      0.000     0
          4.23782424   -1.12193041  -11.99114379    c      0.000     0
          4.05168621    0.90289225  -10.47822905    n      0.000     0
          4.46958025    3.19660403  -11.47196043    c      0.000     0
          3.58358215   -3.67470475  -10.89464910    c      0.000     0
          3.38404597   -5.55630506  -12.24909141    o      0.000     0
          4.05627825    5.47139966   -9.80114018    c      0.000     0
          4.13016654    7.63298180  -10.65903805    o      0.000     0
          3.22438301   -3.63390556   -8.35030294    n      0.000     0
          2.30429425   -5.66524777   -6.85061628    c      0.000     0
         -0.13526660   -6.62953722   -7.23863375    c      0.000     0
         -1.04806101   -8.45605201   -5.55420746    c      0.000     0
          0.37339099   -9.32615751   -3.50725611    c      0.000     0
          2.81663680   -8.35069978   -3.20934079    c      0.000     0
          3.81650980   -6.54914827   -4.85336473    c      0.000     0
         -0.70133406  -11.20575471   -1.55874060    c      0.000     0
         -3.09805482  -12.54696894   -2.56889371    c      0.000     0
         -4.11457630  -14.54474961   -0.73266572    c      0.000     0
         -2.12167112  -16.57010139   -0.17903265    c      0.000     0
          0.31488507  -15.34572893    0.79239996    c      0.000     0
          1.27172900  -13.31531269   -1.04146587    c      0.000     0
         -1.71388712  -17.62371820   -1.92262626    h      0.000     0
         -2.84313076  -17.93707258    1.20018396    h      0.000     0
         -1.30506376   -9.65328800    0.83367158    c      0.000     0
         -3.59924798   -8.35434695    1.06225285    c      0.000     0
         -4.16376587   -6.84645888    3.15589933    c      0.000     0
         -2.33526686   -6.58151928    5.07092890    c      0.000     0
         -0.00621720   -7.85092391    4.90455741    c      0.000     0
          0.44639111   -9.37374082    2.79118219    c      0.000     0
         -6.67290643   -5.51480667    3.36626365    c      0.000     0
         -2.82391225   -4.87496430    7.08552814    n      0.000     0
         -2.86382326   -5.49167642    9.58404844    c      0.000     0
         -2.69045979   -7.65369319   10.42573246    o      0.000     0
          1.98795410   -7.55206372    6.90785608    c      0.000     0
         -1.77641815   -5.68805676   -9.36107965    c      0.000     0
          6.44557238   -5.51941760   -4.47840527    c      0.000     0
         -3.09777136   -3.23772448   11.31492419    c      0.000     0
         -2.94260595   -0.92925393   10.28099833    n      0.000     0
         -2.97174552    1.08644135   11.81696773    c      0.000     0
         -3.22336256    0.88129268   14.43699743    c      0.000     0
         -3.44415816   -1.52030357   15.49101108    c      0.000     0
         -3.35583236   -3.62549628   13.91325983    c      0.000     0
         -2.58986967    3.66092864   10.64743513    c      0.000     0
         -2.25741015    5.54957763   11.96559470    o      0.000     0
          3.56544078    4.87303678   -7.34712292    n      0.000     0
          2.78439807    6.59977403   -5.44454665    c      0.000     0
          0.51324962    7.95117388   -5.69293226    c      0.000     0
         -0.27047650    9.48153080   -3.67941016    c      0.000     0
          1.09870567    9.67698517   -1.43226123    c      0.000     0
          3.35611582    8.30251176   -1.25209474    c      0.000     0
          4.24644139    6.79418906   -3.22600817    c      0.000     0
          0.18615692   11.27905719    0.82227653    c      0.000     0
         -2.03699249   13.02446494    0.07190408    c      0.000     0
         -2.86127213   14.76244606    2.23906091    c      0.000     0
         -0.67047483   16.43339860    3.12951876    c      0.000     0
          1.61314582   14.80698691    3.85273585    c      0.000     0
          2.37083151   13.04260631    1.68193185    c      0.000     0
         -0.13262098   17.72969404    1.59738550    h      0.000     0
         -1.26037174   17.60400835    4.73353720    h      0.000     0
         -0.60560053    9.40654646    2.90961133    c      0.000     0
         -3.03450333    8.35808861    2.94256815    c      0.000     0
         -3.75165439    6.52633928    4.70041030    c      0.000     0
         -1.96166801    5.68832132    6.47286003    c      0.000     0
          0.48157781    6.72451485    6.53115808    c      0.000     0
          1.10034973    8.57548270    4.74733220    c      0.000     0
         -6.37833592    5.42640528    4.67816822    c      0.000     0
         -2.60986297    3.63311187    8.07735090    n      0.000     0
          2.42466981    5.83636247    8.40731598    c      0.000     0
         -1.09197825    7.73173888   -8.02848258    c      0.000     0
          6.71098442    5.38303607   -2.99648204    c      0.000     0
         -3.08684874   -3.01347068    6.62226177    h      0.000     0
          3.50604669   -1.94938479   -7.44495405    h      0.000     0
         -5.01503080   -8.50510930   -0.41509724    h      0.000     0
          2.25463225  -10.33821924    2.69136686    h      0.000     0
         -2.94610194   -9.16725044   -5.86597448    h      0.000     0
          3.98380725   -8.97635031   -1.63982875    h      0.000     0
         -7.61527506   -6.01768169    5.13960155    h      0.000     0
         -7.90415750   -6.03516166    1.79127140    h      0.000     0
         -6.43580250   -3.45723506    3.36890926    h      0.000     0
          2.20500804   -5.56354271    7.44410367    h      0.000     0
          3.80738242   -8.26148581    6.23318606    h      0.000     0
          1.45493794   -8.58374081    8.62115739    h      0.000     0
          6.40142838   -3.49521856   -4.03517001    h      0.000     0
          7.40381471   -6.51054116   -2.93920444    h      0.000     0
          7.57029958   -5.73208738   -6.20310162    h      0.000     0
         -1.74314008   -3.61935467   -9.46066822    h      0.000     0
         -3.73007372   -6.30851054   -9.10124231    h      0.000     0
         -1.08336109   -6.38914516  -11.18115048    h      0.000     0
         -4.58950227  -11.18149063   -2.99910876    h      0.000     0
         -2.59791990  -13.45188320   -4.36802637    h      0.000     0
         -4.67709108  -13.62632382    1.04074777    h      0.000     0
         -5.82035649  -15.40693716   -1.53277576    h      0.000     0
         -0.04223538  -14.49280104    2.64864015    h      0.000     0
          1.78943837  -16.77696971    1.05989070    h      0.000     0
          1.71623038  -14.18634415   -2.87113650    h      0.000     0
          3.04616294  -12.51480580   -0.34655688    h      0.000     0
         -3.45748073   -5.54621392   14.62037645    h      0.000     0
         -3.65333194   -1.75015096   17.51995333    h      0.000     0
          5.00601681   -2.65859900  -15.65558733    h      0.000     0
          5.93831319    1.64816244  -17.51099603    h      0.000     0
         -2.98826173    1.94573762    7.21414290    h      0.000     0
          3.64838086    3.00275593   -6.85271388    h      0.000     0
         -4.42879996    8.95488302    1.55966657    h      0.000     0
          2.99997803    9.34911769    4.80793571    h      0.000     0
         -2.03234376   10.50693399   -3.90071599    h      0.000     0
          4.46876767    8.38932578    0.47135439    h      0.000     0
         -6.33867057    3.41001081    4.20331784    h      0.000     0
         -7.56572644    6.40573695    3.29932955    h      0.000     0
         -7.25881602    5.59052800    6.54440506    h      0.000     0
          2.46393832    3.76794383    8.51064620    h      0.000     0
          4.30555202    6.50957740    7.87960995    h      0.000     0
          1.97036075    6.52490308   10.30565926    h      0.000     0
          6.42100594    3.33462963   -3.09070378    h      0.000     0
          7.64209028    5.83672152   -1.20906568    h      0.000     0
          7.98129612    5.88513630   -4.55223687    h      0.000     0
         -1.27433682    5.75465071   -8.61709447    h      0.000     0
         -2.97922884    8.50059286   -7.68761378    h      0.000     0
         -0.22208062    8.75224769   -9.60523227    h      0.000     0
         -3.65565631   11.92249004   -0.59407320    h      0.000     0
         -1.41489465   14.17978681   -1.53591271    h      0.000     0
         -3.54087434   13.61037453    3.82461672    h      0.000     0
         -4.45406560   15.93101491    1.61414737    h      0.000     0
          1.14770627   13.68078572    5.53058588    h      0.000     0
          3.22612156   16.00603704    4.35759508    h      0.000     0
          2.92308507   14.16980905    0.03000885    h      0.000     0
          4.04155728   11.94316365    2.20561275    h      0.000     0
         -3.21705087    2.59160821   15.56593872    h      0.000     0
          5.45605509    5.46652417  -14.67436593    h      0.000     0
         -0.98135368    2.39896953    0.85753882    c      6.000     0
          0.71446766   -2.37372279   -1.39699894    c      6.000     0
         -0.78504893   -2.22088174    0.90374263    n      7.000     0
          0.64628634    2.24958668   -1.35485805    n      7.000     0
          1.52644518    0.14745533   -2.46505325    c      6.000     0
         -1.64083030   -0.12026217    2.03432798    c      6.000     0
          2.97372973    0.20163378   -4.31233614    o      8.000     0
         -2.95694897   -0.17530989    3.97857271    o      8.000     0
          1.26802513    3.92140849   -2.09557400    h      1.000     0
         -1.30107644   -3.89119177    1.72399715    h      1.000     0
         -2.75928361    3.34035550    0.36891234    h      1.000     0
         -0.32902022   -3.39090568   -2.87092863    h      1.000     0
         -0.08074800    3.56547858    2.31083270    h      1.000     0
          2.42521783   -3.47384576   -1.03428491    h      1.000     0
 
       center of nuclear mass  :    0.09776451    0.00108041   -0.05785479
       center of nuclear charge:   -0.06502674    0.01329107   -0.22076789

              +--------------------------------------------------+
              |               basis set information              |
              +--------------------------------------------------+

              we will work with the 1s 3p 5d 7f 9g ... basis set
              ...i.e. with spherical basis functions...

   type   atoms  prim   cont   basis
   ---------------------------------------------------------------------------
    c       62    118     91   cc-pV5Z   [6s5p4d3f2g1h|24s8p4d3f2g1h]
    n        8    118     91   cc-pV5Z   [6s5p4d3f2g1h|24s8p4d3f2g1h]
    o        6    118     91   cc-pV5Z   [6s5p4d3f2g1h|24s8p4d3f2g1h]
    h       68     58     55   cc-pV5Z   [5s4p3d2f1g|8s4p3d2f1g]
   ---------------------------------------------------------------------------
   total:  144  12912  10656
   ---------------------------------------------------------------------------

   total number of primitive shells          :  144
   total number of contracted shells         : 2616
   total number of cartesian basis functions :14336
   total number of SCF-basis functions       :10656


 integral neglect threshold       :  0.23E-14
 integral storage threshold THIZE :  0.10E-04
 integral storage threshold THIME :         5

 RI-J AUXILIARY BASIS SET information:

              we will work with the 1s 3p 5d 7f 9g ... basis set
              ...i.e. with spherical basis functions...

   type   atoms  prim   cont   basis
   ---------------------------------------------------------------------------
    c       62     70     49   cc-pV5Z   [6s4p3d1f1g|12s5p4d2f1g]
    n        8     70     49   cc-pV5Z   [6s4p3d1f1g|12s5p4d2f1g]
    o        6     70     49   cc-pV5Z   [6s4p3d1f1g|12s5p4d2f1g]
    h       68     16     11   cc-pV5Z   [3s1p1d|5s2p1d]
   ---------------------------------------------------------------------------
   total:  144   6408   4472
   ---------------------------------------------------------------------------

   total number of primitive shells          :   80
   total number of contracted shells         : 1480
   total number of cartesian basis functions : 5452
   total number of SCF-basis functions       : 4472


 symmetry group of the molecule :   c1 

 the group has the following generators :
   c1(z)

    1 symmetry operations found

 there are 1 real representations :   a   

 maximum number of shells which are related by symmetry :  1


    mo occupation :
   irrep   mo's   occupied
    a     ****       30
 
 number of basis functions   :        10656
 number of occupied orbitals :           30
 
  
           ------------------
           density functional
           ------------------
 Dummy atoms with grid-point found.
 DFT quadrature threshold dgrenze tightened by factor 1/10.

 PBE functional
 exchange:    LDA + PBE
 correlation: LDA (PW) + PBE
 Dummy atoms with grid-point found.
 DFT quadrature threshold dgrenze tightened by factor 1/10.

 Dummy atoms with grid-point found.
 DFT quadrature threshold dgrenze tightened by factor 1/10.

 grinp -> nfun, dfgga, dfhybrid 
           6 T F
 iterations will be done with small grid
  
 spherical integration : Lebedev's spherical grid
 spherical gridsize    :           5
    i.e. gridpoints    :         590
 value for diffuse not defined
 radial integration    : Chebyshev 2nd kind (scaling 3)
 radial gridsize       :           8
 integration cells     :         144
 partition function    : becke
 partition sharpness   :           3
  
 found dummy atom(s) with basis: included in dft

 <rddim> : input of entry tasksize
           from data group '$pardft' failed !

               Default values taken

 <rddim> : input of entry memdiv
           from data group '$pardft' failed !

               Default values taken
  RIDFT: memory allocation for DFT gridpoints
  MEMORY is divided by 1 as DEFAULT
 Each node can hold at most  the            1 -th part
 of the gridpoints    

 biggest AO integral is expected to be     4.948106643
  
           ------------------------
               RI-J - INFORMATION
           ------------------------
 
 
 **************************************************
 *      MEMORY ALLOCATION FOR PARALLEL RI-DFT     *
 **************************************************
 
 
MEMORY FOR (MU NU/ ALPHA), SEQUENTIAL RUN               4844 MByte
 
            DIFFERENCE IN MEMORY NEED:       DIAG./SLAVE  
 
      TOTAL DIFFERENCE :                   4865 MByte
 
      difference in xcore:                  156 MByte
      difference in fatmat:                1408 MByte
      getcor calls skipped by slaves:      3301 MByte
 
 
           Integral memory available for diagonal.      4844 MByte
 
           Integral memory available for slave             0 MByte
 
         MEMORY FOR (MU NU/ ALPHA) ON DIAGONALIZER      4844 MByte
 
         MEMORY FOR (MU NU/ ALPHA) ON ONE SLAVE            0 MByte
 
         TOTAL MEMORY FOR (MU NU/ ALPHA),ALL NODES      4844 MByte
 
 Contributions to RI integral batches: 
  neglected integral batches:     2516142
  direct contribution:             865297
  memory contribution:       41597
 Memory core needed for (P|Q) and Cholesky    153 MByte
 Memory core minimum needed except of (P|Q)     5 MByte
 Total minimum memory core needed (sum)       157 MByte
     number of direct tasks:         160
  
 ****************************************
 Memory allocated for RI-J  5001 MByte
 ****************************************
                                            

          ------------------------
          nuclear repulsion energy  :   373.697491527    
          ------------------------

 
          -----------------
          -S integrals
          -----------------

 1e-integrals will be neglected if expon. factor < 0.233117E-15
 
          -----------------
          -T+V integrals
          -----------------

 1e-integrals will be neglected if expon. factor < 0.233117E-15
 Difference densities >>NOT<< switched on in parallel ridft!

 automatic virtual orbital shift switched on 
      shift if e(lumo)-e(homo) < 0.10000000    


 DIIS switched on: error vector is FDS-SDF
 Max. Iterations for DIIS is     :   4
 DIIS matrix (see manual) 
    Scaling factor of diagonals  :  1.200
    threshold for scaling factor :  0.000

 scf convergence criterion : increment of total energy < .1000000D-08
                  and increment of one-electron energy < .1000000D-05


 <geterg> : there is no data group $energy 

  MOs are in ASCII format !


 reading orbital data $scfmo  from file mos . 

 orbital characterization : expanded
 
 mo provided and orthogonalized by Cholesky decomposition

 DSCF restart information will be dumped onto file mos


 Starting SCF iterations


 ITERATION  ENERGY          1e-ENERGY        2e-ENERGY     RMS[dD(SAO)]   TOL
   1  -413.79148014988    -1297.2086430     509.71967137    0.000D+00 0.233D-14
                            Exc = -54.2847794644     Coul =  564.004450835    
                              N = 60.000289335    
                            current damping = 0.700
 
          max. resid. norm for Fia-block=  4.231D-01 for orbital     19a         
          max. resid. fock norm         =  2.368D+01 for orbital   9618a         

 ITERATION  ENERGY          1e-ENERGY        2e-ENERGY     RMS[dD(SAO)]   TOL
   2  -415.44201333940    -1303.5977021     514.45819719    0.188D-02 0.233D-14
                            Exc = -54.2539382472     Coul =  568.712135439    
                              N = 60.000342921    
                            current damping = 0.650
 
          Norm of current diis error:  4.1913    
          max. resid. norm for Fia-block=  1.598D-01 for orbital      1a         
          max. resid. fock norm         =  3.244D-01 for orbital  10266a         

 ITERATION  ENERGY          1e-ENERGY        2e-ENERGY     RMS[dD(SAO)]   TOL
   3  -415.65953727171    -1306.0577893     516.70076046    0.568D-03 0.233D-14
                            Exc = -54.5313435162     Coul =  571.232103979    
                              N = 60.000345145    
                            current damping = 0.550
 
          Norm of current diis error:  2.0619    
          max. resid. norm for Fia-block=  6.480D-02 for orbital      1a         
          max. resid. fock norm         =  6.832D-02 for orbital      1a         

 ITERATION  ENERGY          1e-ENERGY        2e-ENERGY     RMS[dD(SAO)]   TOL
   4  -415.72643195000    -1306.0994484     516.67552491    0.197D-03 0.233D-14
                            Exc = -54.4381091423     Coul =  571.113634050    
                              N = 60.000403318    
                            current damping = 0.600
 
          Norm of current diis error: 0.89257    
          max. resid. norm for Fia-block=  3.083D-02 for orbital     10a         
          max. resid. fock norm         =  6.406D-02 for orbital  10143a         

 ITERATION  ENERGY          1e-ENERGY        2e-ENERGY     RMS[dD(SAO)]   TOL
   5  -415.73612980347    -1306.4629955     517.02937419    0.674D-04 0.233D-14
                            Exc = -54.5345676805     Coul =  571.563941873    
                              N = 60.000387414    
                            current damping = 0.650
 
          Norm of current diis error: 0.59143    
          max. resid. norm for Fia-block=  1.029D-02 for orbital     29a         
          max. resid. fock norm         =  1.164D-02 for orbital     15a         
          mo-orthogonalization: Cholesky decomposition

 ITERATION  ENERGY          1e-ENERGY        2e-ENERGY     RMS[dD(SAO)]   TOL
   6  -415.74151632855    -1306.7174453     517.27843743    0.296D-04 0.233D-14
                            Exc = -54.5391790934     Coul =  571.817616521    
                              N = 60.000400032    
                            current damping = 0.500
 
          Norm of current diis error: 0.15472    
          max. resid. norm for Fia-block=  4.209D-03 for orbital     27a         
          max. resid. fock norm         =  5.566D-03 for orbital  10057a         

 ITERATION  ENERGY          1e-ENERGY        2e-ENERGY     RMS[dD(SAO)]   TOL
   7  -415.74196329390    -1306.5464465     517.10699168    0.175D-04 0.233D-14
                            Exc = -54.5159637423     Coul =  571.622955422    
                              N = 60.000407600    
                            current damping = 0.550
 
          Norm of current diis error: 0.68347E-01
          max. resid. norm for Fia-block=  1.827D-03 for orbital     10a         
          max. resid. fock norm         =  2.434D-03 for orbital   9783a         

 ITERATION  ENERGY          1e-ENERGY        2e-ENERGY     RMS[dD(SAO)]   TOL
   8  -415.74203163349    -1306.6034736     517.16395041    0.422D-05 0.233D-14
                            Exc = -54.5245239212     Coul =  571.688474330    
                              N = 60.000407202    
                            current damping = 0.600
 
          Norm of current diis error: 0.15791E-01
          max. resid. norm for Fia-block=  5.397D-04 for orbital     10a         
          max. resid. fock norm         =  8.688D-04 for orbital   9778a         

 ITERATION  ENERGY          1e-ENERGY        2e-ENERGY     RMS[dD(SAO)]   TOL
   9  -415.74203571898    -1306.6303534     517.19082613    0.169D-05 0.233D-14
                            Exc = -54.5269198347     Coul =  571.717745967    
                              N = 60.000406974    
                            current damping = 0.450
 
          Norm of current diis error: 0.90813E-02
          max. resid. norm for Fia-block=  2.427D-04 for orbital     29a         
          max. resid. fock norm         =  2.938D-04 for orbital   6501a         

 ITERATION  ENERGY          1e-ENERGY        2e-ENERGY     RMS[dD(SAO)]   TOL
  10  -415.74203687087    -1306.6241117     517.18458326    0.789D-06 0.233D-14
                            Exc = -54.5261651287     Coul =  571.710748392    
                              N = 60.000407445    
                            current damping = 0.500
 
          Norm of current diis error: 0.46813E-02
          max. resid. norm for Fia-block=  1.344D-04 for orbital     27a         
          max. resid. fock norm         =  2.012D-04 for orbital  10057a         
          mo-orthogonalization: Cholesky decomposition

 ITERATION  ENERGY          1e-ENERGY        2e-ENERGY     RMS[dD(SAO)]   TOL
  11  -415.74203712237    -1306.6178799     517.17835128    0.295D-06 0.233D-14
                            Exc = -54.5260347037     Coul =  571.704385988    
                              N = 60.000407432    
                            current damping = 0.350
 
          Norm of current diis error: 0.27582E-02
          max. resid. norm for Fia-block=  3.936D-05 for orbital     16a         
          max. resid. fock norm         =  5.120D-05 for orbital  10358a         

 DENSITY CONVERGED !


 ITERATION  ENERGY          1e-ENERGY        2e-ENERGY     RMS[dD(SAO)]   TOL
  12  -415.74203721317    -1306.6219379     517.18240913    0.802D-07 0.233D-14
                            Exc = -54.5262721274     Coul =  571.708681256    
                              N = 60.000407420    
                            current damping = 0.400
 
          Norm of current diis error: 0.54926E-03
          max. resid. norm for Fia-block=  1.666D-05 for orbital     29a         
          max. resid. fock norm         =  3.707D-05 for orbital  10588a         

 DENSITY CONVERGED !


 ITERATION  ENERGY          1e-ENERGY        2e-ENERGY     RMS[dD(SAO)]   TOL
  13  -415.74203721187    -1306.6221000     517.18257124    0.322D-07 0.233D-14
                            Exc = -54.5262245143     Coul =  571.708795757    
                              N = 60.000407440    
                            current damping = 0.450
 
          Norm of current diis error: 0.64122E-03
          max. resid. norm for Fia-block=  8.087D-06 for orbital     28a         
          max. resid. fock norm         =  2.379D-05 for orbital  10588a         

 DENSITY CONVERGED !


 ITERATION  ENERGY          1e-ENERGY        2e-ENERGY     RMS[dD(SAO)]   TOL
  14  -415.74203721715    -1306.6220162     517.18248744    0.955D-08 0.233D-14
                            Exc = -54.5262347781     Coul =  571.708722218    
                              N = 60.000407441    
                            current damping = 0.500
 
          Norm of current diis error: 0.23826E-03
          max. resid. norm for Fia-block=  4.326D-06 for orbital     30a         
          max. resid. fock norm         =  6.090D-06 for orbital     25a         

 DENSITY CONVERGED !


 ITERATION  ENERGY          1e-ENERGY        2e-ENERGY     RMS[dD(SAO)]   TOL
  15  -415.74203721799    -1306.6221151     517.18258639    0.448D-08 0.233D-14
                            Exc = -54.5262596706     Coul =  571.708846064    
                              N = 60.000407434    
                            current damping = 0.550
 
          Norm of current diis error: 0.63784E-04
          max. resid. norm for Fia-block=  1.789D-06 for orbital     28a         
          max. resid. fock norm         =  4.873D-06 for orbital  10587a         
          mo-orthogonalization: Cholesky decomposition

 ENERGY & DENSITY CONVERGED !


 ITERATION  ENERGY          1e-ENERGY        2e-ENERGY     RMS[dD(SAO)]   TOL
  16  -415.74199303207    -1306.6220777     517.18259313    0.225D-08 0.233D-14
                            Exc = -54.5262091984     Coul =  571.708802327    
                              N = 60.000013853    
                            current damping = 0.600
 
          Norm of current diis error: 0.33467E-04
          max. resid. norm for Fia-block=  4.225D-07 for orbital     25a         
          max. resid. fock norm         =  1.049D-06 for orbital  10587a         

 End of SCF iterations

   convergence criteria satisfied after   16 iterations


                  ------------------------------------------ 
                 |  total energy      =   -415.74199303207  |
                  ------------------------------------------ 
                 :  kinetic energy    =    414.07060320224  :
                 :  potential energy  =   -829.81259623431  :
                 :  virial theorem    =      1.99597974259  :
                 :  wavefunction norm =      1.00000000000  :
                  .......................................... 


 <geterg> : there is no data group $energy 


 <skperg> : $end is missing 


 orbitals $scfmo  will be written to file mos

    irrep                 26a         27a         28a         29a         30a   
 eigenvalues H         -0.32300    -0.24870    -0.23346    -0.22817    -0.22286
            eV          -8.7894     -6.7674     -6.3529     -6.2088     -6.0643
 occupation              2.0000      2.0000      2.0000      2.0000      2.0000 

    irrep                 31a         32a         33a         34a         35a   
 eigenvalues H         -0.04737    -0.03646    -0.03225    -0.01943     0.00013
            eV          -1.2889     -0.9921     -0.8775     -0.5288      0.0036
 
 
 ! grave: sending quit signal to master process
 
 
 
 
 ==============================================================================
                           electrostatic moments
 ==============================================================================

 reference point for electrostatic moments:    0.00000   0.00000   0.00000

 
              nuc           elec       ->  total
 ------------------------------------------------------------------------------
                          charge      
 ------------------------------------------------------------------------------
          60.000000     -60.000000      -0.000000
 
 ------------------------------------------------------------------------------
                       dipole moment  
 ------------------------------------------------------------------------------
   x      -3.901604       3.832739      -0.068865
   y       0.797464      -0.799284      -0.001820
   z     -13.246073      13.194320      -0.051753
 
   | dipole moment | =     0.0862 a.u. =     0.2190 debye 
 
 ------------------------------------------------------------------------------
                     quadrupole moment
 ------------------------------------------------------------------------------
  xx     203.816899    -244.295982     -40.479083
  yy     217.032010    -242.837546     -25.805536
  zz     393.532365    -440.305312     -46.772947
  xy       2.780032      -2.725579       0.054453
  xz    -269.112113     278.335875       9.223762
  yz     -11.456328      11.325302      -0.131027
 
     1/3  trace=     -37.685855
     anisotropy=      24.547358
 
 ==============================================================================
 

    ridft profiling
  --------------------------------------------------------------------
             module   cpu total (s)       %  wall total (s)       %

               RIDFT         57420.1  100.00         60091.2  100.00
         Ridft_b_scf          3085.6    5.37          3083.2    5.13
        b_scf_prelim             0.0    0.00             0.0    0.00
        b_scf_molinp             0.0    0.00             0.0    0.00
         b_scf_init0             0.0    0.00             0.0    0.00
        b_scf_auxbas             0.0    0.00             0.0    0.00
      b_scf_symmetry             0.0    0.00             0.0    0.00
         b_scf_cosmo             0.0    0.00             0.0    0.00
        b_scf_params           288.5    0.50           288.3    0.48
          b_scf_ri-j            95.3    0.17            95.3    0.16
    b_scf_ri-j_auxpq            94.9    0.17            94.8    0.16
     ri-j_auxpq_chol            12.3    0.02            12.3    0.02
         b_scf_1elec            19.0    0.03            19.0    0.03
       b_scf_moinput          2682.7    4.67          2680.6    4.46
     moinput_orthmos          2682.1    4.67          2680.0    4.46
    b_scf_dft-dstmax             0.0    0.00             0.0    0.00
           Ridft_scf         54322.4   94.61         56995.3   94.85
          Scf_b_loop             0.0    0.00             0.0    0.00
                noga             0.0    0.00             0.0    0.00
            Scf_loop         54247.1   94.47         56911.0   94.71
     scf_loop_mkdmat           130.7    0.23           194.6    0.32
       scf_loop_ri-j          9390.2   16.35         10633.0   17.69
      parlp1.bc.dens           518.2    0.90           518.6    0.86
        parlp1.gs.gp             0.0    0.00             0.0    0.00
        parlp2.bc.gq             0.0    0.00             0.0    0.00
        scf_loop_dft         20074.0   34.96         20374.0   33.91
      pardft.bc.dens             0.0    0.00             0.0    0.00
        dft_grid_con           114.6    0.20           115.8    0.19
           dft_xcrhf         18587.9   32.37         18642.1   31.02
          dft_getval           355.0    0.62           363.2    0.60
          funct2 dst             3.0    0.01             8.5    0.01
      funct2 f2loop1            98.8    0.17           100.1    0.17
      funct2 f2loop2           163.0    0.28           164.2    0.27
          funct2 s+c            83.2    0.14            83.5    0.14
        funct2 cmf_2            76.2    0.13            76.4    0.13
          dft_mkdens          8489.3   14.78          8537.3   14.21
         dft_gga-fun             1.2    0.00             2.3    0.00
          dft_mkfock          9741.0   16.96          9737.9   16.21
     pardft.red.fock          2508.2    4.37          2828.0    4.71
     scf_loop_energy             5.9    0.01           162.6    0.27
     scf_loop_mkfock             2.3    0.00             2.3    0.00
       scf_loop_diis         14339.2   24.97         14854.9   24.72
       scf_loop_diag          6780.2   11.81          7067.4   11.76
         diag_tritrn          2555.4    4.45          2811.4    4.68
          diag_rdiag          4219.3    7.35          4249.1    7.07
     scf_loop_modump          1023.5    1.78          1064.7    1.77
      scf_loop_ortho          2441.1    4.25          2439.8    4.06
          Scf_a_loop            75.3    0.13            84.3    0.14
         Ridft_a_scf            12.1    0.02            12.6    0.02
         a_scf_fanal            10.7    0.02            10.7    0.02
 


    ------------------------------------------------------------------------
         total  cpu-time : 15 hours 58 minutes and 29 seconds
         total wall-time : 16 hours 43 minutes and  1 seconds
    ------------------------------------------------------------------------


   ****  ridft : all done  ****


    2016-06-02 16:53:17.859 

