Using Slurm to start processes with PMI2
STARTING ridft ON 8 PROCESSORS!
RUNNING PROGRAM /beegfs/modfac/apps/TURBOMOLE/7.0_intel_GA/bin/em64t-unknown-linux-gnu_mpi/ridft_mpi.
PLEASE WAIT UNTIL ridft HAS FINISHED.
Look for the output in slave1.output.
  this is node-proc. number 1 running on node c-9-411.local
  the total number of node-proc. spawned is            8
  parallel platform: MPP, or cluster with fast interconnect

 ridft (c-9-411.local) : TURBOMOLE V7.0.2( ) 15 Jan 2016 at 17:47:42
 Copyright (C) 2016 TURBOMOLE GmbH, Karlsruhe


    2017-11-07 23:11:59.134 



                                  r i d f t

                        DFT program with RI approximation 
                                for coulomb part 




                                                 
                                 References:     
                                                 
          TURBOMOLE:                             
              R. Ahlrichs, M. Baer, M. Haeser, H. Horn, and
              C. Koelmel
              Electronic structure calculations on workstation
              computers: the program system TURBOMOLE
              Chem. Phys. Lett. 162: 165 (1989)
          Density Functional:                              
              O. Treutler and R. Ahlrichs                      
              Efficient Molecular Numerical Integration Schemes
              J. Chem. Phys. 102: 346 (1995)                   
          Parallel Version:                                
              Performance of parallel TURBOMOLE for Density    
              Functional Calculations                          
              M. v. Arnim and R. Ahlrichs                      
              J. Comp. Chem. 19: 1746 (1998)                   
          RI-J Method:                                     
              Auxiliary Basis Sets to approximate Coulomb      
              Potentials                                       
              Chem. Phys. Lett. 240: 283 (1995)                
              K. Eichkorn, O. Treutler, H. Oehm, M. Haeser     
              and R. Ahlrichs                                  
              Chem. Phys. Lett. 242: 652 (1995)                
                                                           
              Auxiliary Basis Sets for Main Row Atoms and their
              Use to approximate Coulomb Potentials            
              K. Eichkorn, F. Weigend, O. Treutler and         
              R. Ahlrichs                                      
              Theo. Chem. Acc. 97: 119 (1997)                   
                                                           
              Accurate Coulomb-fitting basis sets for H to Rn 
              F. Weigend                                        
              Phys. Chem. Chem. Phys. 8: 1057 (2006)            
                                                           
          Multipole accelerated RI-J (MARI-J):             
              Fast evaluation of the Coulomb potential for     
              electron densities using multipole accelerated   
              resolution of identity approximation             
              M. Sierka, A. Hogekamp and R. Ahlrichs           
              J. Chem. Phys. 118: 9136 (2003)                  
          RI-JK Method:                                     
              A fully direct RI-HF algorithm: Implementation,
              optimised auxiliary basis sets, demonstration of
              accuracy and efficiency                         
              F. Weigend                                      
              Phys. Chem. Chem. Phys. 4: 4285 (2002)           
          Two-component HF and DFT with spin-orbit coupling:  
              Self-consistent treatment of spin-orbit         
              interactions with efficient Hartree-Fock and    
              density functional methods                      
              M. K. Armbruster, F. Weigend, C. van Wüllen and 
              W. Klopper                                      
              Phys. Chem. Chem. Phys. 10: 1748 (2008)         
          Relativistic all-electron 2c calculations           
              An efficient implementation of two-component    
              relativistic exact-decoupling methods for large 
              molecules                                       
              D. Peng, N. Middendorf, F. Weigend, M. Reiher   
              J. Chem. Phys. 138, 184105 (2013)               
                                         


 


              +--------------------------------------------------+
              |      general information about current run       |
              +--------------------------------------------------+

 

 SCF run will be profiled !


 DENSITY CONVERGENCE CHECK SWITCHED ON !
 SCF CONVERGENCE IF RMS(delta[D]) <     0.1000000000E-06

 TPSS meta-GGA functional
 exchange:    LDA + TPSS
 correlation: LDA (PW) + TPSS
 A DFT calculation using the RI-J approximation will be carried out.
 Allocatable memory for RI due to $ricore (MB):       14000


              +--------------------------------------------------+
              | Atomic coordinate, charge and isotop information |
              +--------------------------------------------------+

                    atomic coordinates            atom    charge  isotop
         -1.51338642    6.31022453    0.00492784    n      7.000     0
          0.50967728    4.32748456    0.00163934    c      6.000     0
         -0.63733111    1.68570941    0.00059810    c      6.000     0
          1.39240067   -0.37959156    0.00306740    c      6.000     0
          0.24920385   -3.03569026    0.00701447    c      6.000     0
         -2.68770891    6.13649180    1.55901272    h      1.000     0
         -0.74185924    8.15287323    0.00631981    h      1.000     0
         -2.68445669    6.13752283   -1.55146497    h      1.000     0
          1.73115128   -4.47498260    0.00824072    h      1.000     0
         -0.93424281   -3.33558848   -1.66422001    h      1.000     0
         -0.93259515   -3.33113798    1.68014020    h      1.000     0
          2.60727782   -0.13738366    1.66494680    h      1.000     0
          2.60777690   -0.14186628   -1.65908317    h      1.000     0
         -1.85164588    1.44926952    1.66715854    h      1.000     0
         -1.85002299    1.44847281   -1.66693479    h      1.000     0
          1.66661354    4.65522354    1.67470969    h      1.000     0
          1.66343937    4.65895008   -1.67297606    h      1.000     0
          0.43503083   11.82714051    0.00441157    cl    17.000     0
 
       center of nuclear mass  :    0.10029573    5.11208216    0.00382856
       center of nuclear charge:    0.07465418    4.70063797    0.00382095

              +--------------------------------------------------+
              |               basis set information              |
              +--------------------------------------------------+

              we will work with the 1s 3p 5d 7f 9g ... basis set
              ...i.e. with spherical basis functions...

   type   atoms  prim   cont   basis
   ---------------------------------------------------------------------------
    n        1     50     30   cc-pVTZ   [4s3p2d1f|18s5p2d1f]
    c        4     50     30   cc-pVTZ   [4s3p2d1f|18s5p2d1f]
    h       12     16     14   cc-pVTZ   [3s2p1d|5s2p1d]
    cl       1    106     34   cc-pVTZ   [5s4p2d1f|41s16p2d1f]
   ---------------------------------------------------------------------------
   total:   18    548    352
   ---------------------------------------------------------------------------

   total number of primitive shells          :  120
   total number of contracted shells         :  134
   total number of cartesian basis functions :  394
   total number of SCF-basis functions       :  352


 integral neglect threshold       :  0.85E-13
 integral storage threshold THIZE :  0.10E-04
 integral storage threshold THIME :         5

 RI-J AUXILIARY BASIS SET information:

              we will work with the 1s 3p 5d 7f 9g ... basis set
              ...i.e. with spherical basis functions...

   type   atoms  prim   cont   basis
   ---------------------------------------------------------------------------
    n        1     70     49   cc-pVTZ   [6s4p3d1f1g|12s5p4d2f1g]
    c        4     70     49   cc-pVTZ   [6s4p3d1f1g|12s5p4d2f1g]
    h       12     16     11   cc-pVTZ   [3s1p1d|5s2p1d]
    cl       1     77     51   cc-pVTZ   [8s4p3d1f1g|14s5p5d2f1g]
   ---------------------------------------------------------------------------
   total:   18    619    428
   ---------------------------------------------------------------------------

   total number of primitive shells          :   83
   total number of contracted shells         :  152
   total number of cartesian basis functions :  512
   total number of SCF-basis functions       :  428


 symmetry group of the molecule :   c1 

 the group has the following generators :
   c1(z)

    1 symmetry operations found

 there are 1 real representations :   a   

 maximum number of shells which are related by symmetry :  1


    mo occupation :
   irrep   mo's   occupied
    a      352       30
 
 number of basis functions   :          352
 number of occupied orbitals :           30
 
  
           ------------------
           density functional
           ------------------
 TPSS meta-GGA functional
 exchange:    LDA + TPSS
 correlation: LDA (PW) + TPSS
 grinp -> nfun, dfgga, dfhybrid 
           5 F F
 iterations will be done with small grid
  
 spherical integration : Lebedev's spherical grid
 spherical gridsize    :           5
    i.e. gridpoints    :         590
 value for diffuse not defined
 radial integration    : Chebyshev 2nd kind (scaling 3)
 radial gridsize       :           8
 integration cells     :          18
 partition function    : becke
 partition sharpness   :           3
  

 <rddim> : input of entry tasksize
           from data group '$pardft' failed !

               Default values taken

 <rddim> : input of entry memdiv
           from data group '$pardft' failed !

               Default values taken
  RIDFT: memory allocation for DFT gridpoints
  MEMORY is divided by 1 as DEFAULT
 Each node can hold at most  the            1 -th part
 of the gridpoints    

 biggest AO integral is expected to be    10.299856942
  
           ------------------------
               RI-J - INFORMATION
           ------------------------
 
 
 **************************************************
 *      MEMORY ALLOCATION FOR PARALLEL RI-DFT     *
 **************************************************
 
 
MEMORY FOR (MU NU/ ALPHA), SEQUENTIAL RUN              13999 MByte
 
            DIFFERENCE IN MEMORY NEED:       DIAG./SLAVE  
 
      TOTAL DIFFERENCE :                      7 MByte
 
      difference in xcore:                    2 MByte
      difference in fatmat:                   2 MByte
      getcor calls skipped by slaves:         4 MByte
 
 
           Integral memory available for diagonal.     13999 MByte
 
           Integral memory available for slave             0 MByte
 
         MEMORY FOR (MU NU/ ALPHA) ON DIAGONALIZER     13999 MByte
 
         MEMORY FOR (MU NU/ ALPHA) ON ONE SLAVE            0 MByte
 
         TOTAL MEMORY FOR (MU NU/ ALPHA),ALL NODES     13999 MByte
 
 Contributions to RI integral batches: 
  neglected integral batches:        1344
  direct contribution:                  0
  memory contribution:        7701
 Memory core needed for (P|Q) and Cholesky      2 MByte
 Memory core minimum needed except of (P|Q)     1 MByte
 Total minimum memory core needed (sum)         2 MByte
  
 ****************************************
 Memory allocated for RI-J 14001 MByte
 ****************************************
                                            

          ------------------------
          nuclear repulsion energy  :   276.658203880    
          ------------------------

 
          -----------------
          -S integrals
          -----------------

 1e-integrals will be neglected if expon. factor < 0.848214E-14
 
          -----------------
          -T+V integrals
          -----------------

 1e-integrals will be neglected if expon. factor < 0.848214E-14
 Difference densities >>NOT<< switched on in parallel ridft!

 automatic virtual orbital shift switched on 
      shift if e(lumo)-e(homo) < 0.10000000    


 DIIS switched on: error vector is FDS-SDF
 Max. Iterations for DIIS is     :   4
 DIIS matrix (see manual) 
    Scaling factor of diagonals  :  1.200
    threshold for scaling factor :  0.000

 scf convergence criterion : increment of total energy < .1000000D-08
                  and increment of one-electron energy < .1000000D-05


 <geterg> : there is no data group $energy 

  MOs are in ASCII format !


 reading orbital data $scfmo  from file mos . 

 orbital characterization : expanded
 
 mo provided and orthogonalized by Cholesky decomposition

 DSCF restart information will be dumped onto file mos


 Starting SCF iterations


 ITERATION  ENERGY          1e-ENERGY        2e-ENERGY     RMS[dD(SAO)]   TOL
   1  -673.92511230637    -1466.3078305     515.72451431    0.000D+00 0.846D-13
                            Exc = -60.5964172813     Coul =  576.320931587    
                              N = 59.999733760    
                            current damping = 0.700
 
          max. resid. norm for Fia-block=  2.766D-01 for orbital      2a         
          max. resid. fock norm         =  4.403D+00 for orbital    348a         

 ITERATION  ENERGY          1e-ENERGY        2e-ENERGY     RMS[dD(SAO)]   TOL
   2  -674.56146635768    -1470.3279587     519.10828845    0.235D-02 0.846D-13
                            Exc = -61.0725157029     Coul =  580.180804151    
                              N = 59.999781740    
                            current damping = 0.650
 
          Norm of current diis error:  1.9032    
          max. resid. norm for Fia-block=  1.231D-01 for orbital      2a         
          max. resid. fock norm         =  1.457D-01 for orbital    185a         

 ITERATION  ENERGY          1e-ENERGY        2e-ENERGY     RMS[dD(SAO)]   TOL
   3  -674.70910722209    -1470.8585649     519.49125379    0.172D-02 0.846D-13
                            Exc = -61.2260540318     Coul =  580.717307822    
                              N = 59.999808658    
                            current damping = 0.500
 
          Norm of current diis error: 0.91721    
          max. resid. norm for Fia-block=  5.191D-02 for orbital      2a         
          max. resid. fock norm         =  5.425D-02 for orbital    310a         

 ITERATION  ENERGY          1e-ENERGY        2e-ENERGY     RMS[dD(SAO)]   TOL
   4  -674.75361650407    -1471.8183577     520.40653736    0.132D-02 0.846D-13
                            Exc = -61.3756623726     Coul =  581.782199737    
                              N = 59.999827509    
                            current damping = 0.400
 
          Norm of current diis error: 0.31408    
          max. resid. norm for Fia-block=  1.730D-02 for orbital      2a         
          max. resid. fock norm         =  2.725D-02 for orbital    189a         

 ITERATION  ENERGY          1e-ENERGY        2e-ENERGY     RMS[dD(SAO)]   TOL
   5  -674.76018257969    -1471.8435194     520.42513296    0.759D-03 0.846D-13
                            Exc = -61.4073412010     Coul =  581.832474161    
                              N = 59.999835339    
                            current damping = 0.250
 
          Norm of current diis error: 0.11263    
          max. resid. norm for Fia-block=  6.597D-03 for orbital     11a         
          max. resid. fock norm         =  8.937D-03 for orbital    171a         
          mo-orthogonalization: Cholesky decomposition

 ITERATION  ENERGY          1e-ENERGY        2e-ENERGY     RMS[dD(SAO)]   TOL
   6  -674.76090917729    -1472.0845224     520.66540935    0.308D-03 0.846D-13
                            Exc = -61.4383288659     Coul =  582.103738220    
                              N = 59.999838430    
                            current damping = 0.100
 
          Norm of current diis error: 0.50120E-01
          max. resid. norm for Fia-block=  2.589D-03 for orbital     18a         
          max. resid. fock norm         =  3.538D-03 for orbital    189a         

 ITERATION  ENERGY          1e-ENERGY        2e-ENERGY     RMS[dD(SAO)]   TOL
   7  -674.76099534182    -1472.0222613     520.60306211    0.754D-04 0.846D-13
                            Exc = -61.4342876370     Coul =  582.037349746    
                              N = 59.999839033    
                            current damping = 0.150
 
          Norm of current diis error: 0.20799E-01
          max. resid. norm for Fia-block=  8.800D-04 for orbital     19a         
          max. resid. fock norm         =  1.159D-03 for orbital     19a         

 ITERATION  ENERGY          1e-ENERGY        2e-ENERGY     RMS[dD(SAO)]   TOL
   8  -674.76100890411    -1472.0105312     520.59131841    0.229D-04 0.846D-13
                            Exc = -61.4341046846     Coul =  582.025423097    
                              N = 59.999839079    
                            current damping = 0.050
 
          Norm of current diis error: 0.62115E-02
          max. resid. norm for Fia-block=  2.449D-04 for orbital     28a         
          max. resid. fock norm         =  3.531D-04 for orbital    171a         

 ITERATION  ENERGY          1e-ENERGY        2e-ENERGY     RMS[dD(SAO)]   TOL
   9  -674.76101011609    -1472.0387775     520.61956355    0.103D-04 0.846D-13
                            Exc = -61.4361997251     Coul =  582.055763277    
                              N = 59.999839133    
                            current damping = 0.100
 
          Norm of current diis error: 0.31986E-02
          max. resid. norm for Fia-block=  9.198D-05 for orbital     28a         
          max. resid. fock norm         =  1.445D-04 for orbital     26a         

 ITERATION  ENERGY          1e-ENERGY        2e-ENERGY     RMS[dD(SAO)]   TOL
  10  -674.76101055379    -1472.0291078     520.60989332    0.427D-05 0.846D-13
                            Exc = -61.4354970222     Coul =  582.045390339    
                              N = 59.999839124    
                            current damping = 0.150
 
          Norm of current diis error: 0.52646E-03
          max. resid. norm for Fia-block=  2.598D-05 for orbital     25a         
          max. resid. fock norm         =  4.700D-05 for orbital    349a         
          mo-orthogonalization: Cholesky decomposition

 ITERATION  ENERGY          1e-ENERGY        2e-ENERGY     RMS[dD(SAO)]   TOL
  11  -674.76101055966    -1472.0287042     520.60948971    0.621D-06 0.846D-13
                            Exc = -61.4354592245     Coul =  582.044948935    
                              N = 59.999839121    
                            current damping = 0.050
 
          Norm of current diis error: 0.35488E-03
          max. resid. norm for Fia-block=  1.017D-05 for orbital     19a         
          max. resid. fock norm         =  1.805D-05 for orbital    349a         

 ITERATION  ENERGY          1e-ENERGY        2e-ENERGY     RMS[dD(SAO)]   TOL
  12  -674.76101056414    -1472.0291460     520.60993156    0.242D-06 0.846D-13
                            Exc = -61.4354962550     Coul =  582.045427817    
                              N = 59.999839123    
                            current damping = 0.100
 
          Norm of current diis error: 0.32603E-04
          max. resid. norm for Fia-block=  2.289D-06 for orbital     17a         
          max. resid. fock norm         =  2.862D-06 for orbital    306a         

 DENSITY CONVERGED !


 ITERATION  ENERGY          1e-ENERGY        2e-ENERGY     RMS[dD(SAO)]   TOL
  13  -674.76101056413    -1472.0290105     520.60979606    0.412D-07 0.846D-13
                            Exc = -61.4354852029     Coul =  582.045281261    
                              N = 59.999839123    
                            current damping = 0.150
 
          Norm of current diis error: 0.33589E-04
          max. resid. norm for Fia-block=  1.034D-06 for orbital     17a         
          max. resid. fock norm         =  1.414D-06 for orbital    306a         

 DENSITY CONVERGED !


 ITERATION  ENERGY          1e-ENERGY        2e-ENERGY     RMS[dD(SAO)]   TOL
  14  -674.76101056418    -1472.0290337     520.60981930    0.186D-07 0.846D-13
                            Exc = -61.4354873616     Coul =  582.045306662    
                              N = 59.999839123    
                            current damping = 0.200
 
          Norm of current diis error: 0.68492E-05
          max. resid. norm for Fia-block=  2.875D-07 for orbital     29a         
          max. resid. fock norm         =  3.677D-07 for orbital    301a         

 DENSITY CONVERGED !


 ITERATION  ENERGY          1e-ENERGY        2e-ENERGY     RMS[dD(SAO)]   TOL
  15  -674.76101056418    -1472.0290695     520.60985510    0.111D-07 0.846D-13
                            Exc = -61.4354900278     Coul =  582.045345124    
                              N = 59.999839123    
                            current damping = 0.050
 
          Norm of current diis error: 0.30451E-05
          max. resid. norm for Fia-block=  9.985D-08 for orbital     28a         
          max. resid. fock norm         =  1.463D-07 for orbital     26a         
          mo-orthogonalization: Cholesky decomposition

 ENERGY & DENSITY CONVERGED !


 ITERATION  ENERGY          1e-ENERGY        2e-ENERGY     RMS[dD(SAO)]   TOL
  16  -674.76085679354    -1472.0290607     520.61000000    0.446D-08 0.846D-13
                            Exc = -61.4353356657     Coul =  582.045335663    
                              N = 59.999988326    
                            current damping = 0.100
 
          Norm of current diis error: 0.92174E-06
          max. resid. norm for Fia-block=  2.253D-08 for orbital     19a         
          max. resid. fock norm         =  3.295D-08 for orbital     26a         

 End of SCF iterations

   convergence criteria satisfied after   16 iterations


                  ------------------------------------------ 
                 |  total energy      =   -674.76085679354  |
                  ------------------------------------------ 
                 :  kinetic energy    =    672.08003115922  :
                 :  potential energy  =  -1346.84088795276  :
                 :  virial theorem    =      1.99602699889  :
                 :  wavefunction norm =      1.00000000000  :
                  .......................................... 


 <geterg> : there is no data group $energy 


 <skperg> : $end is missing 


 orbitals $scfmo  will be written to file mos

    irrep                 26a         27a         28a         29a         30a   
 eigenvalues H         -0.34241    -0.33723    -0.17444    -0.15636    -0.15618
            eV          -9.3174     -9.1764     -4.7468     -4.2549     -4.2498
 occupation              2.0000      2.0000      2.0000      2.0000      2.0000 

    irrep                 31a         32a         33a         34a         35a   
 eigenvalues H         -0.03922    -0.00477    -0.00016     0.01975     0.03453
            eV          -1.0672     -0.1299     -0.0042      0.5375      0.9397
 
 
 ! grave: sending quit signal to master process
 
 
 
 
 ==============================================================================
                           electrostatic moments
 ==============================================================================

 reference point for electrostatic moments:    0.00000   0.00000   0.00000

 
              nuc           elec       ->  total
 ------------------------------------------------------------------------------
                          charge      
 ------------------------------------------------------------------------------
          60.000000     -60.000000       0.000000
 
 ------------------------------------------------------------------------------
                       dipole moment  
 ------------------------------------------------------------------------------
   x       4.479251      -5.641165      -1.161915
   y     282.038278    -286.685238      -4.646960
   z       0.229257      -0.229943      -0.000686
 
   | dipole moment | =     4.7900 a.u. =    12.1750 debye 
 
 ------------------------------------------------------------------------------
                     quadrupole moment
 ------------------------------------------------------------------------------
  xx      80.964791    -113.686212     -32.721421
  yy    3073.940831   -3185.130879    -111.190047
  zz      27.117238     -61.185958     -34.068721
  xy     -11.427833       1.557910      -9.869923
  xz       0.010943      -0.017725      -0.006782
  yz       1.042390      -1.065827      -0.023437
 
     1/3  trace=     -59.326730
     anisotropy=      79.659700
 
 ==============================================================================
 

    ridft profiling
  --------------------------------------------------------------------
             module   cpu total (s)       %  wall total (s)       %

               RIDFT            36.4  100.00            37.0  100.00
         Ridft_b_scf             1.3    3.69             1.4    3.67
        b_scf_prelim             0.0    0.00             0.0    0.01
        b_scf_molinp             0.0    0.05             0.0    0.05
         b_scf_init0             0.0    0.00             0.0    0.00
        b_scf_auxbas             0.0    0.04             0.0    0.04
      b_scf_symmetry             0.0    0.00             0.0    0.01
         b_scf_cosmo             0.0    0.00             0.0    0.00
        b_scf_params             0.1    0.24             0.1    0.23
          b_scf_ri-j             1.1    3.03             1.1    2.98
    b_scf_ri-j_auxpq             1.1    3.03             1.1    2.97
     ri-j_auxpq_chol             0.0    0.03             0.0    0.03
         b_scf_1elec             0.0    0.12             0.1    0.15
       b_scf_moinput             0.1    0.20             0.1    0.20
     moinput_orthmos             0.1    0.16             0.1    0.17
    b_scf_dft-dstmax             0.0    0.00             0.0    0.00
           Ridft_scf            35.0   96.24            35.0   94.73
          Scf_b_loop             0.0    0.01             0.0    0.01
                noga             0.0    0.00             0.0    0.00
            Scf_loop            34.9   95.99            34.9   94.48
     scf_loop_mkdmat             0.1    0.16             0.1    0.17
       scf_loop_ri-j             2.8    7.69             2.8    7.55
      parlp1.bc.dens             0.8    2.21             0.8    2.18
        parlp1.gs.gp             0.0    0.00             0.0    0.01
        parlp2.bc.gq             0.0    0.00             0.0    0.00
        scf_loop_dft            29.2   80.22            29.2   78.98
      pardft.bc.dens             0.0    0.00             0.0    0.00
        dft_grid_con             0.1    0.36             0.1    0.35
          dft_xcmrhf            28.7   78.89            28.7   77.67
          dft_getval             2.0    5.41             2.0    5.38
          funct2 dst             0.1    0.14             0.0    0.11
      funct2 f2loop1             0.6    1.55             0.6    1.50
      funct2 f2loop2             0.8    2.27             0.8    2.28
          funct2 s+c             0.4    1.16             0.4    1.21
        funct2 cmf_2             0.3    0.93             0.4    1.00
          dft_mkdens            13.6   37.32            13.6   36.67
        dft_mgga-fun             0.2    0.66             0.2    0.61
          dft_mkfock            12.8   35.27            12.9   34.80
     pardft.red.fock             2.9    7.94             2.9    7.81
     scf_loop_energy             0.0    0.00             0.0    0.01
     scf_loop_mkfock             0.0    0.00             0.0    0.00
       scf_loop_diis             0.3    0.70             0.2    0.67
       scf_loop_diag             1.4    3.80             1.4    3.75
         diag_tritrn             0.2    0.57             0.2    0.57
          diag_rdiag             1.2    3.21             1.2    3.16
     scf_loop_modump             1.1    3.08             1.1    3.03
      scf_loop_ortho             0.1    0.23             0.1    0.24
          Scf_a_loop             0.1    0.25             0.1    0.24
         Ridft_a_scf             0.0    0.07             0.6    1.60
         a_scf_fanal             0.0    0.07             0.6    1.57
 


    ------------------------------------------------------------------------
         total  cpu-time :  36.53 seconds
         total wall-time :  37.35 seconds
    ------------------------------------------------------------------------


   ****  ridft : all done  ****


    2017-11-07 23:12:36.480 

