
 eiger (gplogin2.gp.local) : TURBOMOLE V7.3 ( 22118 ) 1 Jul 2018 at 20:38:15
 Copyright (C) 2018 TURBOMOLE GmbH, Karlsruhe


    2018-10-09 02:24:21.463 

                                                                                
  
Total energy =  -3764.9506591330 H =   -102449.5783659 eV
 
 HOMO-LUMO Separation
   HOMO:   275.   275 a     -0.46645881 H =    -12.69300 eV
   LUMO:   276.   276 a     +0.00560534 H =     +0.15253 eV
   Gap :                    +0.47206415 H =    +12.84553 eV
 
Number of MOs=   5560, Electrons=    550.00, Symmetry: c1   
 
   Nr.   Orbital    Occupation       Energy
  292.   292 a                     +0.070782 H =        +1.926 eV
  291.   291 a                     +0.065750 H =        +1.789 eV
  290.   290 a                     +0.063864 H =        +1.738 eV
  289.   289 a                     +0.062426 H =        +1.699 eV
  288.   288 a                     +0.061452 H =        +1.672 eV
  287.   287 a                     +0.060253 H =        +1.640 eV
  286.   286 a                     +0.059021 H =        +1.606 eV
  285.   285 a                     +0.051013 H =        +1.388 eV
  284.   284 a                     +0.043454 H =        +1.182 eV
  283.   283 a                     +0.042949 H =        +1.169 eV
  282.   282 a                     +0.029980 H =        +0.816 eV
  281.   281 a                     +0.028466 H =        +0.775 eV
  280.   280 a                     +0.019052 H =        +0.518 eV
  279.   279 a                     +0.018775 H =        +0.511 eV
  278.   278 a                     +0.012781 H =        +0.348 eV
  277.   277 a                     +0.010152 H =        +0.276 eV
  276.   276 a                     +0.005605 H =        +0.153 eV
  275.   275 a        2.000        -0.466459 H =       -12.693 eV
  274.   274 a        2.000        -0.469977 H =       -12.789 eV
  273.   273 a        2.000        -0.472231 H =       -12.850 eV
  272.   272 a        2.000        -0.476175 H =       -12.957 eV
  271.   271 a        2.000        -0.476634 H =       -12.970 eV
  270.   270 a        2.000        -0.479681 H =       -13.053 eV
  269.   269 a        2.000        -0.480765 H =       -13.082 eV
  268.   268 a        2.000        -0.483227 H =       -13.149 eV
  267.   267 a        2.000        -0.483459 H =       -13.156 eV
  266.   266 a        2.000        -0.484481 H =       -13.183 eV
  265.   265 a        2.000        -0.484836 H =       -13.193 eV
  264.   264 a        2.000        -0.488557 H =       -13.294 eV
  263.   263 a        2.000        -0.489626 H =       -13.323 eV
  262.   262 a        2.000        -0.491252 H =       -13.368 eV
  261.   261 a        2.000        -0.491610 H =       -13.377 eV
  260.   260 a        2.000        -0.495374 H =       -13.480 eV


    ------------------------------------------------------------------------
         total  cpu-time :  13.45 seconds
         total wall-time :  16.68 seconds
    ------------------------------------------------------------------------

   ****  eiger : all done  ****


    2018-10-09 02:24:38.120 

